 BEGIN_INFO
   #
   # this is a Band-XCRYSDEN-Structure-File
   # aimed at Visualization of Fermi Surface
   #
   # Case:   TiSe2_fs.bxsf
   #
 Fermi Energy:         10.1730
 END_INFO
 BEGIN_BLOCK_BANDGRID_3D
 band_energies
 BANDGRID_3D_BANDS
    6
   25   25   25
  0.000000  0.000000  0.000000
  1.114720  0.297957  0.004954
  0.297957  1.114720 -0.004954
 -0.003440  0.003440  0.587064
BAND:  21
   10.0574   10.0157    9.9067    9.7577    9.5881    9.4104
    9.2333    9.0644    8.9107    8.7799    8.6791    8.6153
    8.5935    8.6153    8.6791    8.7799    8.9107    9.0644
    9.2333    9.4104    9.5881    9.7577    9.9067   10.0157
   10.0574   10.0345   10.0143    9.9247    9.7810    9.6153
    9.4410    9.2672    9.1016    8.9511    8.8231    8.7247
    8.6621    8.6399    8.6599    8.7207    8.8178    8.9448
    9.0949    9.2604    9.4344    9.6091    9.7757    9.9218
   10.0239   10.0345    9.5514    9.5349    9.5142    9.4904
    9.4646    9.4335    9.3430    9.1923    9.0493    8.9258
    8.8294    8.7658    8.7394    8.7523    8.8040    8.8912
    9.0087    9.1498    9.3073    9.4717    9.5562    9.5661
    9.5676    9.5626    9.5514    9.0098    8.9906    8.9664
    8.9391    8.9103    8.8819    8.8556    8.8326    8.8134
    8.7970    8.7803    8.7607    8.7460    8.7503    8.7800
    8.8305    8.8871    8.9352    8.9714    8.9981    9.0164
    9.0266    9.0287    9.0229    9.0098    8.4508    8.4320
    8.4077    8.3793    8.3492    8.3190    8.2908    8.2662
    8.2463    8.2314    8.2217    8.2172    8.2185    8.2275
    8.2458    8.2738    8.3093    8.3482    8.3858    8.4182
    8.4430    8.4588    8.4651    8.4622    8.4508    7.9120
    7.8984    7.8785    7.8540    7.8272    7.7999    7.7743
    7.7520    7.7340    7.7204    7.7107    7.7040    7.6999
    7.6994    7.7049    7.7193    7.7438    7.7764    7.8127
    7.8481    7.8783    7.9007    7.9139    7.9175    7.9120
    7.6018    7.5861    7.5711    7.5577    7.5467    7.5385
    7.5337    7.5324    7.5348    7.5407    7.5497    7.5615
    7.5755    7.5910    7.6068    7.6220    7.6352    7.6454
    7.6517    7.6532    7.6500    7.6424    7.6311    7.6172
    7.6018    7.6195    7.6014    7.5832    7.5659    7.5507
    7.5383    7.5292    7.5239    7.5226    7.5253    7.5320
    7.5423    7.5559    7.5720    7.5899    7.6083    7.6261
    7.6417    7.6539    7.6612    7.6629    7.6589    7.6496
    7.6360    7.6195    7.6217    7.6029    7.5825    7.5622
    7.5430    7.5263    7.5127    7.5029    7.4971    7.4957
    7.4987    7.5060    7.5174    7.5324    7.5502    7.5701
    7.5908    7.6108    7.6286    7.6425    7.6508    7.6527
    7.6480    7.6373    7.6217    7.6107    7.5933    7.5726
    7.5504    7.5285    7.5081    7.4904    7.4762    7.4660
    7.4602    7.4590    7.4625    7.4707    7.4832    7.4993
    7.5187    7.5401    7.5625    7.5842    7.6033    7.6182
    7.6270    7.6286    7.6230    7.6107    7.5935    7.5795
    7.5603    7.5381    7.5147    7.4919    7.4710    7.4530
    7.4388    7.4289    7.4237    7.4233    7.4279    7.4372
    7.4509    7.4684    7.4891    7.5118    7.5352    7.5577
    7.5773    7.5922    7.6004    7.6008    7.5935    7.5789
    7.5695    7.5534    7.5326    7.5093    7.4853    7.4623
    7.4415    7.4240    7.4105    7.4016    7.3975    7.3985
    7.4045    7.4151    7.4302    7.4491    7.4710    7.4946
    7.5186    7.5411    7.5552    7.5740    7.5805    7.5789
    7.5658    7.5691    7.5574    7.5395    7.5175    7.4936
    7.4695    7.4468    7.4268    7.4104    7.3981    7.3906
    7.3881    7.3906    7.3981    7.4104    7.4268    7.4468
    7.4695    7.4936    7.5175    7.5395    7.5574    7.5691
    7.5658    7.5789    7.5805    7.5740    7.5552    7.5411
    7.5186    7.4946    7.4710    7.4491    7.4302    7.4151
    7.4045    7.3985    7.3975    7.4016    7.4105    7.4240
    7.4415    7.4623    7.4853    7.5093    7.5326    7.5534
    7.5695    7.5789    7.5935    7.6008    7.6004    7.5922
    7.5773    7.5577    7.5352    7.5118    7.4891    7.4684
    7.4509    7.4372    7.4279    7.4233    7.4237    7.4289
    7.4388    7.4530    7.4710    7.4919    7.5147    7.5381
    7.5603    7.5795    7.5935    7.6107    7.6230    7.6286
    7.6270    7.6182    7.6033    7.5842    7.5625    7.5401
    7.5187    7.4993    7.4832    7.4707    7.4625    7.4590
    7.4602    7.4660    7.4762    7.4904    7.5081    7.5285
    7.5504    7.5726    7.5933    7.6107    7.6217    7.6373
    7.6480    7.6527    7.6508    7.6425    7.6286    7.6108
    7.5908    7.5701    7.5502    7.5324    7.5174    7.5060
    7.4987    7.4957    7.4971    7.5029    7.5127    7.5263
    7.5430    7.5622    7.5825    7.6029    7.6217    7.6195
    7.6360    7.6496    7.6589    7.6629    7.6612    7.6539
    7.6417    7.6261    7.6083    7.5899    7.5720    7.5559
    7.5423    7.5320    7.5253    7.5226    7.5239    7.5292
    7.5383    7.5507    7.5659    7.5832    7.6014    7.6195
    7.6018    7.6172    7.6311    7.6424    7.6500    7.6532
    7.6517    7.6454    7.6352    7.6220    7.6068    7.5910
    7.5755    7.5615    7.5497    7.5407    7.5348    7.5324
    7.5337    7.5385    7.5467    7.5577    7.5711    7.5861
    7.6018    7.9120    7.9175    7.9139    7.9007    7.8783
    7.8481    7.8127    7.7764    7.7438    7.7193    7.7049
    7.6994    7.6999    7.7040    7.7107    7.7204    7.7340
    7.7520    7.7743    7.7999    7.8272    7.8540    7.8785
    7.8984    7.9120    8.4508    8.4622    8.4651    8.4588
    8.4430    8.4182    8.3858    8.3482    8.3093    8.2738
    8.2458    8.2275    8.2185    8.2172    8.2217    8.2314
    8.2463    8.2662    8.2908    8.3190    8.3492    8.3793
    8.4077    8.4320    8.4508    9.0098    9.0229    9.0287
    9.0266    9.0164    8.9981    8.9714    8.9352    8.8871
    8.8305    8.7800    8.7503    8.7460    8.7607    8.7803
    8.7970    8.8134    8.8326    8.8556    8.8819    8.9103
    8.9391    8.9664    8.9906    9.0098    9.5514    9.5626
    9.5676    9.5661    9.5562    9.4717    9.3073    9.1498
    9.0087    8.8912    8.8040    8.7523    8.7394    8.7658
    8.8294    8.9258    9.0493    9.1923    9.3430    9.4335
    9.4646    9.4904    9.5142    9.5349    9.5514   10.0345
   10.0239    9.9218    9.7757    9.6091    9.4344    9.2604
    9.0949    8.9448    8.8178    8.7207    8.6599    8.6399
    8.6621    8.7247    8.8231    8.9511    9.1016    9.2672
    9.4410    9.6153    9.7810    9.9247   10.0143   10.0345
   10.0574   10.0157    9.9067    9.7577    9.5881    9.4104
    9.2333    9.0644    8.9107    8.7799    8.6791    8.6153
    8.5935    8.6153    8.6791    8.7799    8.9107    9.0644
    9.2333    9.4104    9.5881    9.7577    9.9067   10.0157
   10.0574   10.0345   10.0239    9.9218    9.7757    9.6091
    9.4344    9.2604    9.0949    8.9448    8.8178    8.7207
    8.6599    8.6399    8.6621    8.7247    8.8231    8.9511
    9.1016    9.2672    9.4410    9.6153    9.7810    9.9247
   10.0143   10.0345    9.7108    9.7070    9.6961    9.6777
    9.6283    9.4781    9.3116    9.1518    9.0069    8.8844
    8.7908    8.7321    8.7120    8.7321    8.7908    8.8844
    9.0069    9.1518    9.3116    9.4781    9.6283    9.6777
    9.6961    9.7070    9.7108    9.2410    9.2271    9.2076
    9.1840    9.1584    9.1324    9.1076    9.0847    9.0576
    8.9775    8.8879    8.8264    8.7999    8.8108    8.8587
    8.9405    9.0503    9.1520    9.1829    9.2060    9.2253
    9.2395    9.2474    9.2479    9.2410    8.7097    8.6922
    8.6689    8.6415    8.6121    8.5828    8.5555    8.5316
    8.5124    8.4985    8.4898    8.4863    8.4890    8.4994
    8.5190    8.5472    8.5806    8.6157    8.6488    8.6776
    8.7003    8.7154    8.7220    8.7200    8.7097    8.1749
    8.1591    8.1372    8.1112    8.0831    8.0551    8.0290
    8.0064    7.9883    7.9752    7.9670    7.9633    7.9644
    7.9712    7.9848    8.0060    8.0337    8.0657    8.0987
    8.1295    8.1550    8.1731    8.1826    8.1831    8.1749
    7.7175    7.7081    7.6951    7.6800    7.6646    7.6504
    7.6389    7.6309    7.6264    7.6256    7.6279    7.6331
    7.6408    7.6505    7.6616    7.6731    7.6840    7.6938
    7.7022    7.7094    7.7155    7.7205    7.7233    7.7226
    7.7175    7.6201    7.6066    7.5931    7.5805    7.5694
    7.5605    7.5542    7.5507    7.5504    7.5534    7.5596
    7.5688    7.5804    7.5938    7.6078    7.6214    7.6340
    7.6445    7.6521    7.6560    7.6558    7.6516    7.6436
    7.6328    7.6201    7.6135    7.5985    7.5822    7.5661
    7.5511    7.5382    7.5279    7.5207    7.5171    7.5173
    7.5213    7.5291    7.5399    7.5527    7.5660    7.5795
    7.5931    7.6069    7.6199    7.6303    7.6369    7.6385
    7.6347    7.6261    7.6135    7.6005    7.5866    7.5697
    7.5514    7.5334    7.5167    7.5025    7.4913    7.4839
    7.4807    7.4821    7.4882    7.4987    7.5123    7.5254
    7.5339    7.5397    7.5503    7.5663    7.5836    7.5986
    7.6088    7.6126    7.6096    7.6005    7.5816    7.5714
    7.5559    7.5373    7.5175    7.4982    7.4807    7.4660
    7.4550    7.4484    7.4470    7.4514    7.4624    7.4799
    7.5025    7.5259    7.5394    7.5177    7.4956    7.5196
    7.5443    7.5650    7.5789    7.5845    7.5816    7.5646
    7.5604    7.5482    7.5308    7.5106    7.4896    7.4695
    7.4517    7.4371    7.4267    7.4212    7.4215    7.4280
    7.4410    7.4601    7.4842    7.5118    7.5413    7.5682
    7.5527    7.5078    7.5212    7.5427    7.5587    7.5646
    7.5602    7.5632    7.5555    7.5400    7.5200    7.4981
    7.4759    7.4551    7.4368    7.4218    7.4113    7.4058
    7.4060    7.4119    7.4231    7.4393    7.4593    7.4821
    7.5066    7.5316    7.5555    7.5765    7.5639    7.5532
    7.5602    7.5584    7.5518    7.5639    7.5785    7.5574
    7.5335    7.5086    7.4841    7.4612    7.4409    7.4245
    7.4127    7.4063    7.4058    7.4108    7.4210    7.4357
    7.4540    7.4748    7.4969    7.5189    7.5388    7.5542
    7.5617    7.5584    7.5637    7.5574    7.5412    7.5196
    7.5071    7.5541    7.5705    7.5437    7.5143    7.4865
    7.4621    7.4425    7.4289    7.4218    7.4211    7.4263
    7.4365    7.4511    7.4688    7.4889    7.5099    7.5302
    7.5476    7.5597    7.5637    7.5814    7.5841    7.5783
    7.5641    7.5431    7.5180    7.4935    7.5175    7.5404
    7.5272    7.5038    7.4809    7.4630    7.4517    7.4469
    7.4481    7.4546    7.4656    7.4803    7.4979    7.5172
    7.5371    7.5557    7.5712    7.5814    7.6007    7.6099
    7.6128    7.6088    7.5984    7.5831    7.5657    7.5493
    7.5386    7.5330    7.5249    7.5121    7.4986    7.4880
    7.4819    7.4805    7.4837    7.4912    7.5024    7.5167
    7.5334    7.5515    7.5698    7.5868    7.6007    7.6140
    7.6266    7.6353    7.6390    7.6373    7.6306    7.6199
    7.6068    7.5928    7.5790    7.5656    7.5523    7.5396
    7.5289    7.5212    7.5172    7.5170    7.5206    7.5279
    7.5383    7.5513    7.5663    7.5826    7.5989    7.6140
    7.6204    7.6332    7.6440    7.6520    7.6562    7.6563
    7.6523    7.6446    7.6341    7.6214    7.6076    7.5936
    7.5803    7.5687    7.5595    7.5533    7.5503    7.5506
    7.5540    7.5604    7.5694    7.5805    7.5932    7.6067
    7.6204    7.7163    7.7214    7.7222    7.7196    7.7147
    7.7087    7.7017    7.6933    7.6837    7.6728    7.6614
    7.6503    7.6405    7.6327    7.6273    7.6248    7.6255
    7.6298    7.6377    7.6492    7.6633    7.6787    7.6938
    7.7068    7.7163    8.1735    8.1817    8.1812    8.1717
    8.1535    8.1280    8.0972    8.0642    8.0322    8.0046
    7.9836    7.9701    7.9633    7.9622    7.9658    7.9740
    7.9870    8.0049    8.0275    8.0536    8.0816    8.1097
    8.1357    8.1576    8.1735    8.7087    8.7191    8.7212
    8.7146    8.6995    8.6768    8.6479    8.6146    8.5795
    8.5460    8.5179    8.4983    8.4879    8.4853    8.4887
    8.4973    8.5112    8.5304    8.5542    8.5815    8.6108
    8.6402    8.6676    8.6911    8.7087    9.2410    9.2483
    9.2481    9.2405    9.2264    9.2071    9.1838    9.1516
    9.0499    8.9409    8.8596    8.8122    8.8017    8.8285
    8.8901    8.9795    9.0575    9.0840    9.1069    9.1316
    9.1577    9.1835    9.2071    9.2269    9.2410    9.7140
    9.7110    9.7007    9.6828    9.6312    9.4782    9.3115
    9.1518    9.0072    8.8850    8.7918    8.7335    8.7138
    8.7342    8.7932    8.8868    9.0094    9.1541    9.3139
    9.4802    9.6300    9.6789    9.6977    9.7094    9.7140
   10.0424   10.0203    9.9250    9.7804    9.6145    9.4401
    9.2663    9.1008    8.9505    8.8228    8.7247    8.6624
    8.6407    8.6611    8.7222    8.8195    8.9466    9.0967
    9.2622    9.4360    9.6107    9.7771    9.9229   10.0262
   10.0424   10.0345   10.0239    9.9218    9.7757    9.6091
    9.4344    9.2604    9.0949    8.9448    8.8178    8.7207
    8.6599    8.6399    8.6621    8.7247    8.8231    8.9511
    9.1016    9.2672    9.4410    9.6153    9.7810    9.9247
   10.0143   10.0345    9.5514    9.5626    9.5676    9.5661
    9.5562    9.4717    9.3073    9.1498    9.0087    8.8912
    8.8040    8.7523    8.7394    8.7658    8.8294    8.9258
    9.0493    9.1923    9.3430    9.4335    9.4646    9.4904
    9.5142    9.5349    9.5514    9.2410    9.2479    9.2474
    9.2395    9.2253    9.2060    9.1829    9.1520    9.0503
    8.9405    8.8587    8.8108    8.7999    8.8264    8.8879
    8.9775    9.0576    9.0847    9.1076    9.1324    9.1584
    9.1840    9.2076    9.2271    9.2410    8.8415    8.8372
    8.8247    8.8054    8.7813    8.7548    8.7278    8.7023
    8.6798    8.6615    8.6483    8.6403    8.6377    8.6403
    8.6483    8.6615    8.6798    8.7023    8.7278    8.7548
    8.7813    8.8054    8.8247    8.8372    8.8415    8.3812
    8.3696    8.3508    8.3269    8.3000    8.2724    8.2463
    8.2234    8.2049    8.1914    8.1831    8.1799    8.1816
    8.1884    8.2004    8.2176    8.2395    8.2647    8.2920
    8.3194    8.3444    8.3650    8.3788    8.3844    8.3812
    7.9380    7.9278    7.9128    7.8949    7.8759    7.8575
    7.8414    7.8286    7.8193    7.8137    7.8116    7.8126
    7.8165    7.8231    7.8322    7.8434    7.8565    7.8712
    7.8871    7.9033    7.9188    7.9315    7.9397    7.9421
    7.9380    7.6808    7.6744    7.6671    7.6595    7.6520
    7.6454    7.6399    7.6361    7.6343    7.6347    7.6375
    7.6424    7.6490    7.6567    7.6647    7.6721    7.6788
    7.6845    7.6887    7.6914    7.6925    7.6919    7.6897
    7.6860    7.6808    7.6114    7.6043    7.5961    7.5873
    7.5787    7.5707    7.5639    7.5589    7.5560    7.5558
    7.5582    7.5631    7.5695    7.5757    7.5807    7.5851
    7.5904    7.5970    7.6042    7.6110    7.6163    7.6193
    7.6194    7.6166    7.6114    7.5741    7.5684    7.5598
    7.5494    7.5382    7.5273    7.5175    7.5097    7.5047
    7.5031    7.5057    7.5124    7.5214    7.5277    7.5253
    7.5147    7.5083    7.5128    7.5243    7.5385    7.5526
    7.5644    7.5724    7.5756    7.5741    7.5434    7.5418
    7.5348    7.5243    7.5118    7.4990    7.4870    7.4772
    7.4709    7.4697    7.4753    7.4887    7.5091    7.5322
    7.5494    7.5459    7.5025    7.4295    7.4422    7.4650
    7.4880    7.5094    7.5268    7.5385    7.5434    7.5243
    7.5283    7.5247    7.5154    7.5027    7.4887    7.4751
    7.4635    7.4556    7.4530    7.4574    7.4697    7.4897
    7.5156    7.5449    7.5742    7.5965    7.5918    7.5288
    7.4592    7.4530    7.4712    7.4931    7.5120    7.5243
    7.5289    7.5372    7.5372    7.5295    7.5166    7.5012
    7.4853    7.4704    7.4581    7.4497    7.4464    7.4492
    7.4583    7.4731    7.4929    7.5163    7.5421    7.5688
    7.5944    7.6110    7.5778    7.5276    7.5108    7.5166
    7.5289    7.5646    7.5720    7.5807    7.5763    7.5625
    7.5443    7.5243    7.5042    7.4852    7.4688    7.4558
    7.4474    7.4443    7.4467    7.4546    7.4672    7.4833
    7.5021    7.5222    7.5422    7.5606    7.5743    7.5788
    7.5707    7.5646    7.5275    7.5155    7.5105    7.5287
    7.5802    7.6137    7.5971    7.5716    7.5448    7.5188
    7.4951    7.4749    7.4594    7.4497    7.4463    7.4489
    7.4569    7.4690    7.4838    7.4998    7.5153    7.5282
    7.5359    7.5359    7.5275    7.5237    7.5112    7.4921
    7.4704    7.4527    7.4607    7.5313    7.5941    7.5989
    7.5766    7.5472    7.5175    7.4911    7.4705    7.4575
    7.4526    7.4549    7.4626    7.4742    7.4878    7.5019
    7.5147    7.5241    7.5278    7.5237    7.5436    7.5386
    7.5268    7.5092    7.4876    7.4643    7.4413    7.4277
    7.5029    7.5466    7.5502    7.5330    7.5097    7.4888
    7.4751    7.4694    7.4704    7.4767    7.4866    7.4987
    7.5117    7.5243    7.5349    7.5420    7.5436    7.5749
    7.5764    7.5731    7.5651    7.5531    7.5388    7.5243
    7.5125    7.5075    7.5136    7.5243    7.5270    7.5209
    7.5120    7.5054    7.5028    7.5045    7.5096    7.5175
    7.5274    7.5384    7.5497    7.5603    7.5691    7.5749
    7.6120    7.6174    7.6202    7.6201    7.6172    7.6117
    7.6047    7.5973    7.5904    7.5849    7.5803    7.5753
    7.5692    7.5629    7.5581    7.5556    7.5559    7.5589
    7.5639    7.5707    7.5788    7.5875    7.5964    7.6048
    7.6120    7.6801    7.6853    7.6892    7.6915    7.6922
    7.6912    7.6885    7.6842    7.6785    7.6717    7.6642
    7.6562    7.6485    7.6418    7.6369    7.6341    7.6336
    7.6353    7.6390    7.6444    7.6511    7.6586    7.6662
    7.6736    7.6801    7.9356    7.9397    7.9374    7.9292
    7.9165    7.9011    7.8849    7.8692    7.8546    7.8416
    7.8305    7.8215    7.8149    7.8110    7.8098    7.8118
    7.8172    7.8263    7.8391    7.8551    7.8734    7.8924
    7.9104    7.9253    7.9356    8.3797    8.3831    8.3776
    8.3638    8.3432    8.3181    8.2906    8.2632    8.2378
    8.2160    8.1988    8.1868    8.1800    8.1783    8.1814
    8.1896    8.2029    8.2214    8.2443    8.2704    8.2980
    8.3249    8.3490    8.3679    8.3797    8.8429    8.8389
    8.8266    8.8074    8.7834    8.7567    8.7295    8.7038
    8.6810    8.6625    8.6491    8.6409    8.6382    8.6407
    8.6485    8.6616    8.6797    8.7021    8.7276    8.7546
    8.7813    8.8056    8.8252    8.8382    8.8429    9.2465
    9.2329    9.2135    9.1900    9.1642    9.1382    9.1134
    9.0906    9.0641    8.9810    8.8910    8.8301    8.8041
    8.8154    8.8637    8.9457    9.0556    9.1564    9.1865
    9.2097    9.2293    9.2440    9.2523    9.2532    9.2465
    9.5594    9.5430    9.5223    9.4986    9.4728    9.4415
    9.3445    9.1923    9.0493    8.9263    8.8306    8.7677
    8.7419    8.7555    8.8077    8.8952    9.0128    9.1539
    9.3112    9.4752    9.5628    9.5734    9.5753    9.5704
    9.5594    9.7140    9.7110    9.7007    9.6828    9.6312
    9.4782    9.3115    9.1518    9.0072    8.8850    8.7918
    8.7335    8.7138    8.7342    8.7932    8.8868    9.0094
    9.1541    9.3139    9.4802    9.6300    9.6789    9.6977
    9.7094    9.7140    9.5514    9.5626    9.5676    9.5661
    9.5562    9.4717    9.3073    9.1498    9.0087    8.8912
    8.8040    8.7523    8.7394    8.7658    8.8294    8.9258
    9.0493    9.1923    9.3430    9.4335    9.4646    9.4904
    9.5142    9.5349    9.5514    9.0098    9.0229    9.0287
    9.0266    9.0164    8.9981    8.9714    8.9352    8.8871
    8.8305    8.7800    8.7503    8.7460    8.7607    8.7803
    8.7970    8.8134    8.8326    8.8556    8.8819    8.9103
    8.9391    8.9664    8.9906    9.0098    8.7097    8.7200
    8.7220    8.7154    8.7003    8.6776    8.6488    8.6157
    8.5806    8.5472    8.5190    8.4994    8.4890    8.4863
    8.4898    8.4985    8.5124    8.5316    8.5555    8.5828
    8.6121    8.6415    8.6689    8.6922    8.7097    8.3812
    8.3844    8.3788    8.3650    8.3444    8.3194    8.2920
    8.2647    8.2395    8.2176    8.2004    8.1884    8.1816
    8.1799    8.1831    8.1914    8.2049    8.2234    8.2463
    8.2724    8.3000    8.3269    8.3508    8.3696    8.3812
    8.0487    8.0451    8.0350    8.0198    8.0016    7.9828
    7.9651    7.9497    7.9374    7.9281    7.9217    7.9180
    7.9169    7.9180    7.9217    7.9281    7.9374    7.9497
    7.9651    7.9828    8.0016    8.0198    8.0350    8.0451
    8.0487    7.7889    7.7851    7.7791    7.7716    7.7636
    7.7559    7.7492    7.7438    7.7401    7.7381    7.7379
    7.7392    7.7417    7.7448    7.7484    7.7524    7.7568
    7.7618    7.7673    7.7731    7.7789    7.7842    7.7881
    7.7898    7.7889    7.6499    7.6484    7.6454    7.6411
    7.6359    7.6302    7.6246    7.6198    7.6162    7.6145
    7.6148    7.6166    7.6188    7.6200    7.6201    7.6204
    7.6221    7.6255    7.6301    7.6354    7.6405    7.6449
    7.6481    7.6499    7.6499    7.5646    7.5660    7.5642
    7.5599    7.5536    7.5460    7.5382    7.5312    7.5260
    7.5239    7.5256    7.5303    7.5337    7.5294    7.5151
    7.4997    7.4935    7.4966    7.5051    7.5166    7.5291
    7.5412    7.5518    7.5598    7.5646    7.5033    7.5088
    7.5089    7.5047    7.4974    7.4884    7.4794    7.4723
    7.4697    7.4749    7.4904    7.5149    7.5405    7.5555
    7.5453    7.4973    7.4110    7.3803    7.3975    7.4169
    7.4375    7.4579    7.4768    7.4924    7.5033    7.4704
    7.4798    7.4821    7.4784    7.4711    7.4624    7.4550
    7.4519    7.4565    7.4712    7.4959    7.5274    7.5615
    7.5937    7.6184    7.6248    7.5931    7.5149    7.4273
    7.3897    7.3949    7.4130    7.4344    7.4546    7.4704
    7.4771    7.4877    7.4912    7.4882    7.4812    7.4735
    7.4676    7.4658    7.4695    7.4792    7.4943    7.5137
    7.5361    7.5603    7.5853    7.6097    7.6312    7.6431
    7.6199    7.5481    7.4830    7.4528    7.4508    7.4624
    7.4771    7.5337    7.5390    7.5416    7.5379    7.5299
    7.5205    7.5116    7.5042    7.4991    7.4967    7.4973
    7.5008    7.5071    7.5160    7.5272    7.5401    7.5545
    7.5697    7.5848    7.5984    7.6051    7.5878    7.5545
    7.5358    7.5337    7.5334    7.5366    7.5566    7.5909
    7.6081    7.6011    7.5874    7.5721    7.5568    7.5421
    7.5288    7.5172    7.5078    7.5009    7.4968    7.4957
    7.4977    7.5025    7.5097    7.5186    7.5281    7.5362
    7.5402    7.5380    7.5334    7.4767    7.4623    7.4512
    7.4542    7.4859    7.5518    7.6237    7.6463    7.6342
    7.6123    7.5876    7.5623    7.5376    7.5148    7.4948
    7.4791    7.4688    7.4647    7.4664    7.4723    7.4802
    7.4873    7.4906    7.4872    7.4767    7.4708    7.4549
    7.4347    7.4134    7.3957    7.3916    7.4307    7.5182
    7.5958    7.6271    7.6204    7.5955    7.5629    7.5285
    7.4964    7.4712    7.4560    7.4512    7.4544    7.4620
    7.4709    7.4785    7.4822    7.4801    7.4708    7.5043
    7.4934    7.4778    7.4589    7.4384    7.4178    7.3983
    7.3808    7.4116    7.4980    7.5459    7.5559    7.5409
    7.5151    7.4903    7.4747    7.4696    7.4723    7.4795
    7.4886    7.4978    7.5053    7.5097    7.5096    7.5043
    7.5656    7.5609    7.5529    7.5424    7.5303    7.5177
    7.5061    7.4973    7.4937    7.4994    7.5144    7.5287
    7.5332    7.5300    7.5256    7.5241    7.5262    7.5314
    7.5385    7.5464    7.5540    7.5605    7.5650    7.5669
    7.5656    7.6498    7.6499    7.6482    7.6451    7.6408
    7.6357    7.6304    7.6256    7.6221    7.6202    7.6197
    7.6195    7.6184    7.6163    7.6145    7.6143    7.6161
    7.6196    7.6243    7.6298    7.6355    7.6407    7.6450
    7.6482    7.6498    7.7868    7.7878    7.7861    7.7823
    7.7772    7.7714    7.7657    7.7603    7.7553    7.7509
    7.7469    7.7434    7.7403    7.7379    7.7366    7.7367
    7.7386    7.7423    7.7475    7.7541    7.7617    7.7696
    7.7770    7.7830    7.7868    8.0472    8.0437    8.0335
    8.0182    8.0000    7.9811    7.9633    7.9479    7.9355
    7.9262    7.9199    7.9163    7.9151    7.9163    7.9199
    7.9262    7.9354    7.9478    7.9631    7.9808    7.9997
    8.0179    8.0332    8.0435    8.0472    8.3832    8.3716
    8.3528    8.3287    8.3016    8.2738    8.2475    8.2244
    8.2058    8.1923    8.1840    8.1808    8.1825    8.1892
    8.2012    8.2183    8.2401    8.2654    8.2927    8.3202
    8.3455    8.3663    8.3804    8.3863    8.3832    8.7152
    8.6976    8.6741    8.6466    8.6170    8.5875    8.5600
    8.5360    8.5168    8.5030    8.4944    8.4911    8.4939
    8.5044    8.5239    8.5519    8.5852    8.6202    8.6534
    8.6823    8.7052    8.7205    8.7273    8.7255    8.7152
    9.0173    8.9980    8.9738    8.9463    8.9174    8.8889
    8.8624    8.8394    8.8203    8.8043    8.7880    8.7686
    8.7538    8.7582    8.7881    8.8385    8.8948    8.9424
    8.9785    9.0052    9.0236    9.0339    9.0361    9.0303
    9.0173    9.2465    9.2329    9.2135    9.1900    9.1642
    9.1382    9.1134    9.0906    9.0641    8.9810    8.8910
    8.8301    8.8041    8.8154    8.8637    8.9457    9.0556
    9.1564    9.1865    9.2097    9.2293    9.2440    9.2523
    9.2532    9.2465    9.2410    9.2483    9.2481    9.2405
    9.2264    9.2071    9.1838    9.1516    9.0499    8.9409
    8.8596    8.8122    8.8017    8.8285    8.8901    8.9795
    9.0575    9.0840    9.1069    9.1316    9.1577    9.1835
    9.2071    9.2269    9.2410    9.0098    9.0229    9.0287
    9.0266    9.0164    8.9981    8.9714    8.9352    8.8871
    8.8305    8.7800    8.7503    8.7460    8.7607    8.7803
    8.7970    8.8134    8.8326    8.8556    8.8819    8.9103
    8.9391    8.9664    8.9906    9.0098    8.4508    8.4622
    8.4651    8.4588    8.4430    8.4182    8.3858    8.3482
    8.3093    8.2738    8.2458    8.2275    8.2185    8.2172
    8.2217    8.2314    8.2463    8.2662    8.2908    8.3190
    8.3492    8.3793    8.4077    8.4320    8.4508    8.1749
    8.1831    8.1826    8.1731    8.1550    8.1295    8.0987
    8.0657    8.0337    8.0060    7.9848    7.9712    7.9644
    7.9633    7.9670    7.9752    7.9883    8.0064    8.0290
    8.0551    8.0831    8.1112    8.1372    8.1591    8.1749
    7.9380    7.9421    7.9397    7.9315    7.9188    7.9033
    7.8871    7.8712    7.8565    7.8434    7.8322    7.8231
    7.8165    7.8126    7.8116    7.8137    7.8193    7.8286
    7.8414    7.8575    7.8759    7.8949    7.9128    7.9278
    7.9380    7.7889    7.7898    7.7881    7.7842    7.7789
    7.7731    7.7673    7.7618    7.7568    7.7524    7.7484
    7.7448    7.7417    7.7392    7.7379    7.7381    7.7401
    7.7438    7.7492    7.7559    7.7636    7.7716    7.7791
    7.7851    7.7889    7.6898    7.6888    7.6859    7.6815
    7.6759    7.6697    7.6636    7.6581    7.6542    7.6521
    7.6519    7.6527    7.6533    7.6527    7.6519    7.6521
    7.6542    7.6581    7.6636    7.6697    7.6759    7.6815
    7.6859    7.6888    7.6898    7.5858    7.5872    7.5848
    7.5791    7.5708    7.5610    7.5509    7.5418    7.5354
    7.5332    7.5358    7.5413    7.5435    7.5367    7.5242
    7.5147    7.5128    7.5173    7.5261    7.5373    7.5495
    7.5615    7.5723    7.5806    7.5858    7.4818    7.4882
    7.4878    7.4810    7.4697    7.4560    7.4422    7.4317
    7.4298    7.4454    7.4813    7.5218    7.5477    7.5448
    7.5051    7.4299    7.3459    7.3545    7.3712    7.3902
    7.4107    7.4316    7.4516    7.4690    7.4818    7.4099
    7.4171    7.4144    7.4036    7.3883    7.3731    7.3641
    7.3736    7.4122    7.4696    7.5290    7.5819    7.6229
    7.6463    7.6422    7.5980    7.5154    7.4176    7.3439
    7.3232    7.3322    7.3512    7.3732    7.3941    7.4099
    7.3884    7.3843    7.3706    7.3537    7.3409    7.3415
    7.3652    7.4084    7.4587    7.5080    7.5525    7.5908
    7.6225    7.6474    7.6648    7.6726    7.6634    7.6128
    7.5247    7.4424    7.3899    7.3703    7.3720    7.3818
    7.3884    7.3831    7.3592    7.3441    7.3429    7.3593
    7.3902    7.4274    7.4645    7.4980    7.5270    7.5513
    7.5713    7.5873    7.5994    7.6074    7.6110    7.6095
    7.6016    7.5861    7.5615    7.5256    7.4815    7.4433
    7.4117    7.3831    7.3441    7.3521    7.3739    7.4049
    7.4396    7.4732    7.5024    7.5257    7.5434    7.5562
    7.5648    7.5696    7.5712    7.5695    7.5645    7.5558
    7.5429    7.5251    7.5017    7.4725    7.4389    7.4042
    7.3733    7.3518    7.3441    7.3848    7.4142    7.4469
    7.4856    7.5288    7.5634    7.5876    7.6029    7.6106
    7.6121    7.6084    7.6002    7.5880    7.5719    7.5518
    7.5273    7.4983    7.4646    7.4274    7.3900    7.3592
    7.3430    7.3448    7.3605    7.3848    7.3905    7.3840
    7.3745    7.3735    7.3941    7.4472    7.5296    7.6172
    7.6664    7.6746    7.6664    7.6488    7.6238    7.5919
    7.5536    7.5090    7.4595    7.4090    7.3657    7.3421
    7.3418    7.3551    7.3723    7.3862    7.3905    7.4119
    7.3961    7.3753    7.3535    7.3349    7.3267    7.3483
    7.4218    7.5188    7.6007    7.6443    7.6480    7.6244
    7.5832    7.5301    7.4705    7.4131    7.3744    7.3653
    7.3745    7.3900    7.4054    7.4163    7.4191    7.4119
    7.4835    7.4708    7.4535    7.4336    7.4128    7.3924
    7.3734    7.3567    7.3464    7.4306    7.5056    7.5452
    7.5480    7.5221    7.4817    7.4461    7.4310    7.4331
    7.4437    7.4575    7.4712    7.4825    7.4893    7.4900
    7.4835    7.5864    7.5813    7.5730    7.5624    7.5505
    7.5383    7.5271    7.5181    7.5133    7.5148    7.5238
    7.5361    7.5430    7.5413    7.5363    7.5340    7.5364
    7.5428    7.5518    7.5618    7.5715    7.5797    7.5854
    7.5877    7.5864    7.6886    7.6875    7.6847    7.6802
    7.6748    7.6686    7.6625    7.6571    7.6530    7.6508