
     Program PWSCF v.6.4 starts on  5May2019 at 23:20:47 

     This program is part of the open-source Quantum ESPRESSO suite
     for quantum simulation of materials; please cite
         "P. Giannozzi et al., J. Phys.:Condens. Matter 21 395502 (2009);
         "P. Giannozzi et al., J. Phys.:Condens. Matter 29 465901 (2017);
          URL http://www.quantum-espresso.org", 
     in publications or presentations arising from this work. More details at
     http://www.quantum-espresso.org/quote

     Parallel version (MPI), running on    32 processors

     MPI processes distributed on     4 nodes
     R & G space division:  proc/nbgrp/npool/nimage =      32
     Waiting for input...
     Reading input from standard input
Warning: card CO       0.000000000   0.000000000   0.500000000 ignored

     Current dimensions of program PWSCF are:
     Max number of different atomic species (ntypx) = 10
     Max number of k-points (npk) =  40000
     Max angular momentum in pseudopotentials (lmaxx) =  3
               file Ti.pz-spn-rrkjus_psl.1.0.0.UPF: wavefunction(s)  3S 3D renormalized

     Subspace diagonalization in iterative solution of the eigenvalue problem:
     a serial algorithm will be used


     Parallelization info
     --------------------
     sticks:   dense  smooth     PW     G-vecs:    dense   smooth      PW
     Min          77      26      8                 5252     1081     188
     Max          78      27     10                 5256     1091     193
     Sum        2479     859    265               168117    34781    6045



     bravais-lattice index     =            0
     lattice parameter (alat)  =       6.6896  a.u.
     unit-cell volume          =     440.2643 (a.u.)^3
     number of atoms/cell      =            3
     number of atomic types    =            2
     number of electrons       =        24.00
     number of Kohn-Sham states=           16
     kinetic-energy cutoff     =      70.0000  Ry
     charge density cutoff     =     800.0000  Ry
     convergence threshold     =      1.0E-10
     mixing beta               =       0.7000
     number of iterations used =            8  plain     mixing
     Exchange-correlation      = LDA ( 1  1  0  0 0 0)
     nstep                     =           50


     celldm(1)=   6.689630  celldm(2)=   0.000000  celldm(3)=   0.000000
     celldm(4)=   0.000000  celldm(5)=   0.000000  celldm(6)=   0.000000

     crystal axes: (cart. coord. in units of alat)
               a(1) = (   0.966063  -0.258191   0.007696 )  
               a(2) = (  -0.258191   0.966063  -0.007696 )  
               a(3) = (  -0.013060   0.013060   1.696830 )  

     reciprocal axes: (cart. coord. in units 2 pi/alat)
               b(1) = (  1.114714  0.297969  0.006286 )  
               b(2) = (  0.297969  1.114714 -0.006286 )  
               b(3) = ( -0.003704  0.003704  0.589277 )  


     PseudoPot. # 1 for Ti read from file:
     ./pseudo/Ti.pz-spn-rrkjus_psl.1.0.0.UPF
     MD5 check sum: 2354b1dd637eae4f0b5af1ae1c6b5e32
     Pseudo is Ultrasoft + core correction, Zval = 12.0
     Generated using "atomic" code by A. Dal Corso v.6.2.2
     Using radial grid of 1177 points,  6 beta functions with: 
                l(1) =   0
                l(2) =   0
                l(3) =   1
                l(4) =   1
                l(5) =   2
                l(6) =   2
     Q(r) pseudized with 0 coefficients 


     PseudoPot. # 2 for Se read from file:
     ./pseudo/Se.pz-n-rrkjus_psl.0.2.UPF
     MD5 check sum: 25603cecb1b2b0d484ba6e75ea72c72e
     Pseudo is Ultrasoft + core correction, Zval =  6.0
     Generated using "atomic" code by A. Dal Corso v.5.0.2 svn rev. 9415
     Using radial grid of 1211 points,  4 beta functions with: 
                l(1) =   0
                l(2) =   0
                l(3) =   1
                l(4) =   1
     Q(r) pseudized with 0 coefficients 


     atomic species   valence    mass     pseudopotential
        Ti            12.00    47.86700     Ti( 1.00)
        Se             6.00    78.97100     Se( 1.00)

      4 Sym. Ops., with inversion, found



   Cartesian axes

     site n.     atom                  positions (alat units)
         1           Ti  tau(   1) = (   0.0000000   0.0000000   0.0000000  )
         2           Se  tau(   2) = (   0.1465634   0.5613093   0.4301773  )
         3           Se  tau(   3) = (   0.5613093   0.1465634  -0.4301773  )

     number of k points=  1098  Marzari-Vanderbilt smearing, width (Ry)=  0.0100

     Number of k-points >= 100: set verbosity='high' to print them.

     Dense  grid:   168117 G-vectors     FFT dimensions: (  64,  64, 108)

     Smooth grid:    34781 G-vectors     FFT dimensions: (  36,  36,  64)

     Estimated max dynamical RAM per process >      65.77 MB

     Estimated total dynamical RAM >       2.06 GB

     Initial potential from superposition of free atoms

     starting charge   23.99862, renormalised to   24.00000
     Starting wfcs are   18 randomized atomic wfcs

     total cpu time spent up to now is       40.9 secs

     Self-consistent Calculation

     iteration #  1     ecut=    70.00 Ry     beta= 0.70
     Davidson diagonalization with overlap
     ethr =  1.00E-02,  avg # of iterations =  2.0

     Threshold (ethr) on eigenvalues was too large:
     Diagonalizing with lowered threshold

     Davidson diagonalization with overlap
     ethr =  5.47E-04,  avg # of iterations =  1.0

     total cpu time spent up to now is      237.0 secs

     total energy              =    -175.39730546 Ry
     Harris-Foulkes estimate   =    -175.49136410 Ry
     estimated scf accuracy    <       0.13174123 Ry

     iteration #  2     ecut=    70.00 Ry     beta= 0.70
     Davidson diagonalization with overlap
     ethr =  5.49E-04,  avg # of iterations =  3.8

     total cpu time spent up to now is      379.7 secs

     total energy              =    -175.18714531 Ry
     Harris-Foulkes estimate   =    -175.60494103 Ry
     estimated scf accuracy    <       1.98261984 Ry

     iteration #  3     ecut=    70.00 Ry     beta= 0.70
     Davidson diagonalization with overlap
     ethr =  5.49E-04,  avg # of iterations =  3.7

     total cpu time spent up to now is      515.7 secs

     total energy              =    -175.43935402 Ry
     Harris-Foulkes estimate   =    -175.48848941 Ry
     estimated scf accuracy    <       0.23870072 Ry

     iteration #  4     ecut=    70.00 Ry     beta= 0.70
     Davidson diagonalization with overlap
     ethr =  5.49E-04,  avg # of iterations =  2.0

     total cpu time spent up to now is      620.2 secs

     total energy              =    -175.45567764 Ry
     Harris-Foulkes estimate   =    -175.45873326 Ry
     estimated scf accuracy    <       0.01504645 Ry

     iteration #  5     ecut=    70.00 Ry     beta= 0.70
     Davidson diagonalization with overlap
     ethr =  6.27E-05,  avg # of iterations =  2.9

     total cpu time spent up to now is      721.2 secs

     total energy              =    -175.45718304 Ry
     Harris-Foulkes estimate   =    -175.45725528 Ry
     estimated scf accuracy    <       0.00034160 Ry

     iteration #  6     ecut=    70.00 Ry     beta= 0.70
     Davidson diagonalization with overlap
     ethr =  1.42E-06,  avg # of iterations =  3.8

     total cpu time spent up to now is      849.0 secs

     total energy              =    -175.45730034 Ry
     Harris-Foulkes estimate   =    -175.45730698 Ry
     estimated scf accuracy    <       0.00004513 Ry

     iteration #  7     ecut=    70.00 Ry     beta= 0.70
     Davidson diagonalization with overlap
     ethr =  1.88E-07,  avg # of iterations =  1.2

     total cpu time spent up to now is      939.3 secs

     total energy              =    -175.45730113 Ry
     Harris-Foulkes estimate   =    -175.45730271 Ry
     estimated scf accuracy    <       0.00000745 Ry

     iteration #  8     ecut=    70.00 Ry     beta= 0.70
     Davidson diagonalization with overlap
     ethr =  3.10E-08,  avg # of iterations =  2.8

     total cpu time spent up to now is     1041.8 secs

     total energy              =    -175.45730231 Ry
     Harris-Foulkes estimate   =    -175.45730234 Ry
     estimated scf accuracy    <       0.00000019 Ry

     iteration #  9     ecut=    70.00 Ry     beta= 0.70
     Davidson diagonalization with overlap
     ethr =  8.08E-10,  avg # of iterations =  1.9

     total cpu time spent up to now is     1139.0 secs

     total energy              =    -175.45730233 Ry
     Harris-Foulkes estimate   =    -175.45730233 Ry
     estimated scf accuracy    <       0.00000002 Ry

     iteration # 10     ecut=    70.00 Ry     beta= 0.70
     Davidson diagonalization with overlap
     ethr =  8.23E-11,  avg # of iterations =  3.3

     total cpu time spent up to now is     1246.2 secs

     total energy              =    -175.45730233 Ry
     Harris-Foulkes estimate   =    -175.45730233 Ry
     estimated scf accuracy    <          7.5E-10 Ry

     iteration # 11     ecut=    70.00 Ry     beta= 0.70
     Davidson diagonalization with overlap
     ethr =  3.14E-12,  avg # of iterations =  2.4

     total cpu time spent up to now is     1353.9 secs

     End of self-consistent calculation

     Number of k-points >= 100: set verbosity='high' to print the bands.

     the Fermi energy is     7.5495 ev

!    total energy              =    -175.45730233 Ry
     Harris-Foulkes estimate   =    -175.45730233 Ry
     estimated scf accuracy    <          4.3E-11 Ry

     The total energy is the sum of the following terms:

     one-electron contribution =     -78.95088637 Ry
     hartree contribution      =      47.29950127 Ry
     xc contribution           =     -45.40837610 Ry
     ewald contribution        =     -98.39738977 Ry
     smearing contrib. (-TS)   =      -0.00015136 Ry

     convergence has been achieved in  11 iterations

     Forces acting on atoms (cartesian axes, Ry/au):

     atom    1 type  1   force =     0.00000000    0.00000000    0.00000000
     atom    2 type  2   force =     0.00055123   -0.00055123   -0.00965424
     atom    3 type  2   force =    -0.00055123    0.00055123    0.00965424

     Total force =     0.013698     Total SCF correction =     0.000006


     Computing stress (Cartesian axis) and pressure

          total   stress  (Ry/bohr**3)                   (kbar)     P=  -46.20
  -0.00034253  -0.00000648   0.00000680        -50.39     -0.95      1.00
  -0.00000648  -0.00034253  -0.00000680         -0.95    -50.39     -1.00
   0.00000680  -0.00000680  -0.00025714          1.00     -1.00    -37.83


     BFGS Geometry Optimization

     number of scf cycles    =   1
     number of bfgs steps    =   0

     enthalpy new            =    -175.4573023302 Ry

     new trust radius        =       0.0359493792 bohr
     new conv_thr            =            1.0E-10 Ry

     new unit-cell volume =    429.97435 a.u.^3 (    63.71562 Ang^3 )
     density =      5.36374 g/cm^3

CELL_PARAMETERS (angstrom)
   3.390731468  -0.906726711   0.027805735
  -0.906726711   3.390731468  -0.027805735
  -0.044821840   0.044821840   5.968149022

ATOMIC_POSITIONS (crystal)
Ti       0.000000000   0.000000000   0.000000000
Se       0.333391561   0.666608438   0.254178965
Se       0.666608438   0.333391561  -0.254178965



     Writing output data file TiSe2.save/
     NEW-OLD atomic charge density approx. for the potential
     extrapolated charge   23.42568, renormalised to   24.00000

     total cpu time spent up to now is     1368.6 secs

     Self-consistent Calculation

     iteration #  1     ecut=    70.00 Ry     beta= 0.70
     Davidson diagonalization with overlap
     ethr =  1.00E-06,  avg # of iterations =  6.5

     total cpu time spent up to now is     1587.3 secs

     total energy              =    -172.26493000 Ry
     Harris-Foulkes estimate   =    -177.17254504 Ry
     estimated scf accuracy    <       3.38544649 Ry

     iteration #  2     ecut=    70.00 Ry     beta= 0.70
     Davidson diagonalization with overlap
     ethr =  1.00E-02,  avg # of iterations =  4.3

     total cpu time spent up to now is     1746.8 secs

     total energy              =    -175.23802608 Ry
     Harris-Foulkes estimate   =    -181.12983156 Ry
     estimated scf accuracy    <      16.08245888 Ry

     iteration #  3     ecut=    70.00 Ry     beta= 0.70
     Davidson diagonalization with overlap
     ethr =  1.00E-02,  avg # of iterations =  2.6

     total cpu time spent up to now is     1873.1 secs

     total energy              =    -175.78850035 Ry
     Harris-Foulkes estimate   =    -176.37949036 Ry
     estimated scf accuracy    <       3.28453899 Ry

     iteration #  4     ecut=    70.00 Ry     beta= 0.70
     Davidson diagonalization with overlap
     ethr =  1.00E-02,  avg # of iterations =  1.0

     total cpu time spent up to now is     1962.2 secs

     total energy              =    -175.45111259 Ry
     Harris-Foulkes estimate   =    -175.84178145 Ry
     estimated scf accuracy    <       2.14067166 Ry

     iteration #  5     ecut=    70.00 Ry     beta= 0.70
     Davidson diagonalization with overlap
     ethr =  8.92E-03,  avg # of iterations =  2.5

     total cpu time spent up to now is     2062.0 secs

     total energy              =    -175.45425781 Ry
     Harris-Foulkes estimate   =    -175.52842556 Ry
     estimated scf accuracy    <       0.83204957 Ry

     iteration #  6     ecut=    70.00 Ry     beta= 0.70
     Davidson diagonalization with overlap
     ethr =  3.47E-03,  avg # of iterations =  3.6

     total cpu time spent up to now is     2174.6 secs

     total energy              =    -175.48352454 Ry
     Harris-Foulkes estimate   =    -175.49530249 Ry
     estimated scf accuracy    <       0.35563771 Ry

     iteration #  7     ecut=    70.00 Ry     beta= 0.70
     Davidson diagonalization with overlap
     ethr =  1.48E-03,  avg # of iterations =  1.8

     total cpu time spent up to now is     2269.1 secs

     total energy              =    -175.47932087 Ry
     Harris-Foulkes estimate   =    -175.48886302 Ry
     estimated scf accuracy    <       0.26073620 Ry

     iteration #  8     ecut=    70.00 Ry     beta= 0.70
     Davidson diagonalization with overlap
     ethr =  1.09E-03,  avg # of iterations =  1.1

     total cpu time spent up to now is     2359.0 secs

     total energy              =    -175.47326781 Ry
     Harris-Foulkes estimate   =    -175.48094001 Ry
     estimated scf accuracy    <       0.19868861 Ry

     iteration #  9     ecut=    70.00 Ry     beta= 0.70
     Davidson diagonalization with overlap
     ethr =  8.28E-04,  avg # of iterations =  1.2

     total cpu time spent up to now is     2449.3 secs

     total energy              =    -175.47033317 Ry
     Harris-Foulkes estimate   =    -175.47470238 Ry
     estimated scf accuracy    <       0.14594213 Ry

     iteration # 10     ecut=    70.00 Ry     beta= 0.70
     Davidson diagonalization with overlap
     ethr =  6.08E-04,  avg # of iterations =  1.2

     total cpu time spent up to now is     2540.0 secs

     total energy              =    -175.44254234 Ry
     Harris-Foulkes estimate   =    -175.47136733 Ry
     estimated scf accuracy    <       0.11310663 Ry

     iteration # 11     ecut=    70.00 Ry     beta= 0.70
     Davidson diagonalization with overlap
     ethr =  4.71E-04,  avg # of iterations =  3.0

     total cpu time spent up to now is     2645.0 secs

     total energy              =    -175.46002155 Ry
     Harris-Foulkes estimate   =    -175.46038472 Ry
     estimated scf accuracy    <       0.00644603 Ry

     iteration # 12     ecut=    70.00 Ry     beta= 0.70
     Davidson diagonalization with overlap
     ethr =  2.69E-05,  avg # of iterations =  2.3

     total cpu time spent up to now is     2747.1 secs

     total energy              =    -175.46023060 Ry
     Harris-Foulkes estimate   =    -175.46035999 Ry
     estimated scf accuracy    <       0.00416180 Ry

     iteration # 13     ecut=    70.00 Ry     beta= 0.70
     Davidson diagonalization with overlap
     ethr =  1.73E-05,  avg # of iterations =  1.0

     total cpu time spent up to now is     2836.1 secs

     total energy              =    -175.45838684 Ry
     Harris-Foulkes estimate   =    -175.46024654 Ry
     estimated scf accuracy    <       0.00317723 Ry

     iteration # 14     ecut=    70.00 Ry     beta= 0.70
     Davidson diagonalization with overlap
     ethr =  1.32E-05,  avg # of iterations =  3.4

     total cpu time spent up to now is     2969.2 secs

     total energy              =    -175.45977752 Ry
     Harris-Foulkes estimate   =    -175.46248903 Ry
     estimated scf accuracy    <       0.02135119 Ry

     iteration # 15     ecut=    70.00 Ry     beta= 0.70
     Davidson diagonalization with overlap
     ethr =  1.32E-05,  avg # of iterations =  2.7

     total cpu time spent up to now is     3069.3 secs

     total energy              =    -175.46005605 Ry
     Harris-Foulkes estimate   =    -175.46042375 Ry
     estimated scf accuracy    <       0.00438732 Ry

     iteration # 16     ecut=    70.00 Ry     beta= 0.70
     Davidson diagonalization with overlap
     ethr =  1.32E-05,  avg # of iterations =  1.0

     total cpu time spent up to now is     3158.7 secs

     total energy              =    -175.46017364 Ry
     Harris-Foulkes estimate   =    -175.46011770 Ry
     estimated scf accuracy    <       0.00193551 Ry

     iteration # 17     ecut=    70.00 Ry     beta= 0.70
     Davidson diagonalization with overlap
     ethr =  8.06E-06,  avg # of iterations =  1.0

     total cpu time spent up to now is     3247.5 secs

     total energy              =    -175.45966730 Ry
     Harris-Foulkes estimate   =    -175.46017978 Ry
     estimated scf accuracy    <       0.00230303 Ry

     iteration # 18     ecut=    70.00 Ry     beta= 0.70
     Davidson diagonalization with overlap
     ethr =  8.06E-06,  avg # of iterations =  2.8

     total cpu time spent up to now is     3347.8 secs

     total energy              =    -175.45993312 Ry
     Harris-Foulkes estimate   =    -175.45993647 Ry
     estimated scf accuracy    <       0.00001713 Ry

     iteration # 19     ecut=    70.00 Ry     beta= 0.70
     Davidson diagonalization with overlap
     ethr =  7.14E-08,  avg # of iterations =  2.1

     total cpu time spent up to now is     3454.0 secs

     total energy              =    -175.45993652 Ry
     Harris-Foulkes estimate   =    -175.45993687 Ry
     estimated scf accuracy    <       0.00000495 Ry

     iteration # 20     ecut=    70.00 Ry     beta= 0.70
     Davidson diagonalization with overlap
     ethr =  2.06E-08,  avg # of iterations =  1.2

     total cpu time spent up to now is     3544.0 secs

     total energy              =    -175.45993634 Ry
     Harris-Foulkes estimate   =    -175.45993660 Ry
     estimated scf accuracy    <       0.00000278 Ry

     iteration # 21     ecut=    70.00 Ry     beta= 0.70
     Davidson diagonalization with overlap
     ethr =  1.16E-08,  avg # of iterations =  2.3

     total cpu time spent up to now is     3640.5 secs

     total energy              =    -175.45993624 Ry
     Harris-Foulkes estimate   =    -175.45993645 Ry
     estimated scf accuracy    <       0.00000067 Ry

     iteration # 22     ecut=    70.00 Ry     beta= 0.70
     Davidson diagonalization with overlap
     ethr =  2.80E-09,  avg # of iterations =  3.0

     total cpu time spent up to now is     3748.2 secs

     total energy              =    -175.45993642 Ry
     Harris-Foulkes estimate   =    -175.45993655 Ry
     estimated scf accuracy    <       0.00000099 Ry

     iteration # 23     ecut=    70.00 Ry     beta= 0.70
     Davidson diagonalization with overlap
     ethr =  2.80E-09,  avg # of iterations =  1.1

     total cpu time spent up to now is     3837.7 secs

     total energy              =    -175.45993636 Ry
     Harris-Foulkes estimate   =    -175.45993645 Ry
     estimated scf accuracy    <       0.00000017 Ry

     iteration # 24     ecut=    70.00 Ry     beta= 0.70
     Davidson diagonalization with overlap
     ethr =  7.22E-10,  avg # of iterations =  3.0

     total cpu time spent up to now is     3940.8 secs

     total energy              =    -175.45993644 Ry
     Harris-Foulkes estimate   =    -175.45993638 Ry
     estimated scf accuracy    <          5.9E-09 Ry

     iteration # 25     ecut=    70.00 Ry     beta= 0.70
     Davidson diagonalization with overlap
     ethr =  2.46E-11,  avg # of iterations =  1.9

     total cpu time spent up to now is     4035.5 secs

     End of self-consistent calculation

     Number of k-points >= 100: set verbosity='high' to print the bands.

     the Fermi energy is     7.8637 ev

!    total energy              =    -175.45993644 Ry
     Harris-Foulkes estimate   =    -175.45993644 Ry
     estimated scf accuracy    <          5.4E-11 Ry

     The total energy is the sum of the following terms:

     one-electron contribution =     -78.31396936 Ry
     hartree contribution      =      47.26741275 Ry
     xc contribution           =     -45.46264917 Ry
     ewald contribution        =     -98.95057804 Ry
     smearing contrib. (-TS)   =      -0.00015262 Ry

     convergence has been achieved in  25 iterations

     Forces acting on atoms (cartesian axes, Ry/au):

     atom    1 type  1   force =    -0.00000000   -0.00000000    0.00000000
     atom    2 type  2   force =     0.00034296   -0.00034296    0.00129990
     atom    3 type  2   force =    -0.00034296    0.00034296   -0.00129990

     Total force =     0.001962     Total SCF correction =     0.000014


     Computing stress (Cartesian axis) and pressure

          total   stress  (Ry/bohr**3)                   (kbar)     P=  -24.94
  -0.00020088  -0.00000531   0.00000482        -29.55     -0.78      0.71
  -0.00000531  -0.00020088  -0.00000482         -0.78    -29.55     -0.71
   0.00000482  -0.00000482  -0.00010681          0.71     -0.71    -15.71


     number of scf cycles    =   2
     number of bfgs steps    =   1

     enthalpy old            =    -175.4573023302 Ry
     enthalpy new            =    -175.4599364426 Ry

     CASE: enthalpy_new < enthalpy_old

     new trust radius        =       0.0458466489 bohr
     new conv_thr            =            1.0E-10 Ry

     new unit-cell volume =    417.97644 a.u.^3 (    61.93772 Ang^3 )
     density =      5.51770 g/cm^3

CELL_PARAMETERS (angstrom)
   3.353539320  -0.897694156   0.028767425
  -0.897694156   3.353539320  -0.028767425
  -0.042766536   0.042766536   5.931941823

ATOMIC_POSITIONS (crystal)
Ti      -0.000000000  -0.000000000   0.000000000
Se       0.333484462   0.666515537   0.254312110
Se       0.666515537   0.333484462  -0.254312110



     Writing output data file TiSe2.save/
     NEW-OLD atomic charge density approx. for the potential
     extrapolated charge   23.31113, renormalised to   24.00000

     total cpu time spent up to now is     4050.1 secs

     Self-consistent Calculation

     iteration #  1     ecut=    70.00 Ry     beta= 0.70
     Davidson diagonalization with overlap
     ethr =  1.00E-06,  avg # of iterations =  6.3

     total cpu time spent up to now is     4269.4 secs

     total energy              =    -170.65548770 Ry
     Harris-Foulkes estimate   =    -177.55884430 Ry
     estimated scf accuracy    <       5.09622481 Ry

     iteration #  2     ecut=    70.00 Ry     beta= 0.70
     Davidson diagonalization with overlap
     ethr =  1.00E-02,  avg # of iterations =  4.3

     total cpu time spent up to now is     4437.2 secs

     total energy              =    -175.09871841 Ry
     Harris-Foulkes estimate   =    -183.45626227 Ry
     estimated scf accuracy    <      22.20605072 Ry

     iteration #  3     ecut=    70.00 Ry     beta= 0.70
     Davidson diagonalization with overlap
     ethr =  1.00E-02,  avg # of iterations =  2.7

     total cpu time spent up to now is     4565.9 secs

     total energy              =    -175.98625803 Ry
     Harris-Foulkes estimate   =    -176.80012426 Ry
     estimated scf accuracy    <       4.26382978 Ry

     iteration #  4     ecut=    70.00 Ry     beta= 0.70
     Davidson diagonalization with overlap
     ethr =  1.00E-02,  avg # of iterations =  1.0

     total cpu time spent up to now is     4654.9 secs

     total energy              =    -175.48862337 Ry
     Harris-Foulkes estimate   =    -176.05040336 Ry
     estimated scf accuracy    <       2.77594647 Ry

     iteration #  5     ecut=    70.00 Ry     beta= 0.70
     Davidson diagonalization with overlap
     ethr =  1.00E-02,  avg # of iterations =  2.2

     total cpu time spent up to now is     4752.9 secs

     total energy              =    -175.49716102 Ry
     Harris-Foulkes estimate   =    -175.58232470 Ry
     estimated scf accuracy    <       1.11102416 Ry

     iteration #  6     ecut=    70.00 Ry     beta= 0.70
     Davidson diagonalization with overlap
     ethr =  4.63E-03,  avg # of iterations =  3.6

     total cpu time spent up to now is     4863.7 secs

     total energy              =    -175.48705792 Ry
     Harris-Foulkes estimate   =    -175.53720837 Ry
     estimated scf accuracy    <       0.63564627 Ry

     iteration #  7     ecut=    70.00 Ry     beta= 0.70
     Davidson diagonalization with overlap
     ethr =  2.65E-03,  avg # of iterations =  1.7

     total cpu time spent up to now is     4957.5 secs

     total energy              =    -175.48578224 Ry
     Harris-Foulkes estimate   =    -175.49828844 Ry
     estimated scf accuracy    <       0.36740233 Ry

     iteration #  8     ecut=    70.00 Ry     beta= 0.70
     Davidson diagonalization with overlap
     ethr =  1.53E-03,  avg # of iterations =  1.5

     total cpu time spent up to now is     5050.2 secs

     total energy              =    -175.48311297 Ry
     Harris-Foulkes estimate   =    -175.49028055 Ry
     estimated scf accuracy    <       0.27562501 Ry

     iteration #  9     ecut=    70.00 Ry     beta= 0.70
     Davidson diagonalization with overlap
     ethr =  1.15E-03,  avg # of iterations =  1.2

     total cpu time spent up to now is     5140.7 secs

     total energy              =    -175.48200526 Ry
     Harris-Foulkes estimate   =    -175.48495029 Ry
     estimated scf accuracy    <       0.22360785 Ry

     iteration # 10     ecut=    70.00 Ry     beta= 0.70
     Davidson diagonalization with overlap
     ethr =  9.32E-04,  avg # of iterations =  1.2

     total cpu time spent up to now is     5230.6 secs

     total energy              =    -175.43182916 Ry
     Harris-Foulkes estimate   =    -175.48306968 Ry
     estimated scf accuracy    <       0.19926245 Ry

     iteration # 11     ecut=    70.00 Ry     beta= 0.70
     Davidson diagonalization with overlap
     ethr =  8.30E-04,  avg # of iterations =  3.2

     total cpu time spent up to now is     5337.8 secs

     total energy              =    -175.46089908 Ry
     Harris-Foulkes estimate   =    -175.46138646 Ry
     estimated scf accuracy    <       0.00578855 Ry

     iteration # 12     ecut=    70.00 Ry     beta= 0.70
     Davidson diagonalization with overlap
     ethr =  2.41E-05,  avg # of iterations =  2.6

     total cpu time spent up to now is     5445.8 secs

     total energy              =    -175.46088763 Ry
     Harris-Foulkes estimate   =    -175.46144401 Ry
     estimated scf accuracy    <       0.00308795 Ry

     iteration # 13     ecut=    70.00 Ry     beta= 0.70
     Davidson diagonalization with overlap
     ethr =  1.29E-05,  avg # of iterations =  2.0

     total cpu time spent up to now is     5540.6 secs

     total energy              =    -175.46112550 Ry
     Harris-Foulkes estimate   =    -175.46112508 Ry
     estimated scf accuracy    <       0.00007355 Ry

     iteration # 14     ecut=    70.00 Ry     beta= 0.70
     Davidson diagonalization with overlap
     ethr =  3.06E-07,  avg # of iterations =  2.6

     total cpu time spent up to now is     5642.0 secs

     total energy              =    -175.46112510 Ry
     Harris-Foulkes estimate   =    -175.46113294 Ry
     estimated scf accuracy    <       0.00006930 Ry

     iteration # 15     ecut=    70.00 Ry     beta= 0.70
     Davidson diagonalization with overlap
     ethr =  2.89E-07,  avg # of iterations =  1.0

     total cpu time spent up to now is     5730.9 secs

     total energy              =    -175.46111999 Ry
     Harris-Foulkes estimate   =    -175.46112651 Ry
     estimated scf accuracy    <       0.00002758 Ry

     iteration # 16     ecut=    70.00 Ry     beta= 0.70
     Davidson diagonalization with overlap
     ethr =  1.15E-07,  avg # of iterations =  2.5

     total cpu time spent up to now is     5830.6 secs

     total energy              =    -175.46112352 Ry
     Harris-Foulkes estimate   =    -175.46112395 Ry
     estimated scf accuracy    <       0.00000150 Ry

     iteration # 17     ecut=    70.00 Ry     beta= 0.70
     Davidson diagonalization with overlap
     ethr =  6.27E-09,  avg # of iterations =  2.0

     total cpu time spent up to now is     5932.9 secs

     total energy              =    -175.46112365 Ry
     Harris-Foulkes estimate   =    -175.46112371 Ry
     estimated scf accuracy    <       0.00000050 Ry

     iteration # 18     ecut=    70.00 Ry     beta= 0.70
     Davidson diagonalization with overlap
     ethr =  2.06E-09,  avg # of iterations =  2.4

     total cpu time spent up to now is     6030.6 secs

     total energy              =    -175.46112351 Ry
     Harris-Foulkes estimate   =    -175.46112371 Ry
     estimated scf accuracy    <       0.00000055 Ry

     iteration # 19     ecut=    70.00 Ry     beta= 0.70
     Davidson diagonalization with overlap
     ethr =  2.06E-09,  avg # of iterations =  2.2

     total cpu time spent up to now is     6141.7 secs

     total energy              =    -175.46112359 Ry
     Harris-Foulkes estimate   =    -175.46112361 Ry
     estimated scf accuracy    <       0.00000007 Ry

     iteration # 20     ecut=    70.00 Ry     beta= 0.70
     Davidson diagonalization with overlap
     ethr =  2.87E-10,  avg # of iterations =  1.3

     total cpu time spent up to now is     6232.5 secs

     total energy              =    -175.46112360 Ry
     Harris-Foulkes estimate   =    -175.46112360 Ry
     estimated scf accuracy    <          8.1E-09 Ry

     iteration # 21     ecut=    70.00 Ry     beta= 0.70
     Davidson diagonalization with overlap
     ethr =  3.37E-11,  avg # of iterations =  3.1

     total cpu time spent up to now is     6349.0 secs

     total energy              =    -175.46112360 Ry
     Harris-Foulkes estimate   =    -175.46112360 Ry
     estimated scf accuracy    <          1.5E-09 Ry

     iteration # 22     ecut=    70.00 Ry     beta= 0.70
     Davidson diagonalization with overlap
     ethr =  6.43E-12,  avg # of iterations =  1.7

     total cpu time spent up to now is     6442.4 secs

     End of self-consistent calculation

     Number of k-points >= 100: set verbosity='high' to print the bands.

     the Fermi energy is     8.2459 ev

!    total energy              =    -175.46112360 Ry
     Harris-Foulkes estimate   =    -175.46112360 Ry
     estimated scf accuracy    <          1.2E-11 Ry

     The total energy is the sum of the following terms:

     one-electron contribution =     -77.24274398 Ry
     hartree contribution      =      47.08527764 Ry
     xc contribution           =     -45.52280682 Ry
     ewald contribution        =     -99.78069763 Ry
     smearing contrib. (-TS)   =      -0.00015282 Ry

     convergence has been achieved in  22 iterations

     Forces acting on atoms (cartesian axes, Ry/au):

     atom    1 type  1   force =     0.00000000    0.00000000    0.00000000
     atom    2 type  2   force =    -0.00004132    0.00004132    0.01191809
     atom    3 type  2   force =     0.00004132   -0.00004132   -0.01191809

     Total force =     0.016855     Total SCF correction =     0.000004


     Computing stress (Cartesian axis) and pressure

          total   stress  (Ry/bohr**3)                   (kbar)     P=   -0.33
  -0.00002782  -0.00000196   0.00000048         -4.09     -0.29      0.07
  -0.00000196  -0.00002782  -0.00000048         -0.29     -4.09     -0.07
   0.00000048  -0.00000048   0.00004898          0.07     -0.07      7.21


     number of scf cycles    =   3
     number of bfgs steps    =   2

     enthalpy old            =    -175.4599364426 Ry
     enthalpy new            =    -175.4611235976 Ry

     CASE: enthalpy_new < enthalpy_old

     new trust radius        =       0.0117298382 bohr
     new conv_thr            =            1.0E-10 Ry

     new unit-cell volume =    415.60291 a.u.^3 (    61.58600 Ang^3 )
     density =      5.54921 g/cm^3

CELL_PARAMETERS (angstrom)
   3.344150682  -0.895497693   0.029012717
  -0.895497693   3.344150682  -0.029012717
  -0.042296935   0.042296935   5.931745534

ATOMIC_POSITIONS (crystal)
Ti      -0.000000000  -0.000000000  -0.000000000
Se       0.333507527   0.666492472   0.255358206
Se       0.666492472   0.333507527  -0.255358206



     Writing output data file TiSe2.save/
     NEW-OLD atomic charge density approx. for the potential
     extrapolated charge   23.86294, renormalised to   24.00000

     total cpu time spent up to now is     6457.1 secs

     Self-consistent Calculation

     iteration #  1     ecut=    70.00 Ry     beta= 0.70
     Davidson diagonalization with overlap
     ethr =  1.00E-06,  avg # of iterations =  4.4

     total cpu time spent up to now is     6633.2 secs

     total energy              =    -175.37238105 Ry
     Harris-Foulkes estimate   =    -175.82438433 Ry
     estimated scf accuracy    <       0.09173276 Ry

     iteration #  2     ecut=    70.00 Ry     beta= 0.70
     Davidson diagonalization with overlap
     ethr =  3.82E-04,  avg # of iterations =  4.0

     total cpu time spent up to now is     6782.0 secs

     total energy              =    -175.36656703 Ry
     Harris-Foulkes estimate   =    -175.74294251 Ry
     estimated scf accuracy    <       1.58176351 Ry

     iteration #  3     ecut=    70.00 Ry     beta= 0.70
     Davidson diagonalization with overlap
     ethr =  3.82E-04,  avg # of iterations =  3.9

     total cpu time spent up to now is     6922.8 secs

     total energy              =    -175.46547314 Ry
     Harris-Foulkes estimate   =    -175.47569639 Ry
     estimated scf accuracy    <       0.11198227 Ry

     iteration #  4     ecut=    70.00 Ry     beta= 0.70
     Davidson diagonalization with overlap
     ethr =  3.82E-04,  avg # of iterations =  1.0

     total cpu time spent up to now is     7011.7 secs

     total energy              =    -175.46103080 Ry
     Harris-Foulkes estimate   =    -175.46695776 Ry
     estimated scf accuracy    <       0.05591789 Ry

     iteration #  5     ecut=    70.00 Ry     beta= 0.70
     Davidson diagonalization with overlap
     ethr =  2.33E-04,  avg # of iterations =  1.0

     total cpu time spent up to now is     7100.9 secs

     total energy              =    -175.46187813 Ry
     Harris-Foulkes estimate   =    -175.46237748 Ry
     estimated scf accuracy    <       0.01871575 Ry

     iteration #  6     ecut=    70.00 Ry     beta= 0.70
     Davidson diagonalization with overlap
     ethr =  7.80E-05,  avg # of iterations =  1.7

     total cpu time spent up to now is     7193.6 secs

     total energy              =    -175.46194501 Ry
     Harris-Foulkes estimate   =    -175.46224608 Ry
     estimated scf accuracy    <       0.01244971 Ry

     iteration #  7     ecut=    70.00 Ry     beta= 0.70
     Davidson diagonalization with overlap
     ethr =  5.19E-05,  avg # of iterations =  1.4

     total cpu time spent up to now is     7284.9 secs

     total energy              =    -175.46165533 Ry
     Harris-Foulkes estimate   =    -175.46211563 Ry
     estimated scf accuracy    <       0.00863930 Ry

     iteration #  8     ecut=    70.00 Ry     beta= 0.70
     Davidson diagonalization with overlap
     ethr =  3.60E-05,  avg # of iterations =  1.2

     total cpu time spent up to now is     7374.9 secs

     total energy              =    -175.46136676 Ry
     Harris-Foulkes estimate   =    -175.46177827 Ry
     estimated scf accuracy    <       0.00487771 Ry

     iteration #  9     ecut=    70.00 Ry     beta= 0.70
     Davidson diagonalization with overlap
     ethr =  2.03E-05,  avg # of iterations =  1.7

     total cpu time spent up to now is     7469.3 secs

     total energy              =    -175.46139620 Ry
     Harris-Foulkes estimate   =    -175.46154529 Ry
     estimated scf accuracy    <       0.00147196 Ry

     iteration # 10     ecut=    70.00 Ry     beta= 0.70
     Davidson diagonalization with overlap
     ethr =  6.13E-06,  avg # of iterations =  1.8

     total cpu time spent up to now is     7563.7 secs

     total energy              =    -175.46136616 Ry
     Harris-Foulkes estimate   =    -175.46145505 Ry
     estimated scf accuracy    <       0.00034868 Ry

     iteration # 11     ecut=    70.00 Ry     beta= 0.70
     Davidson diagonalization with overlap
     ethr =  1.45E-06,  avg # of iterations =  3.0

     total cpu time spent up to now is     7668.6 secs

     total energy              =    -175.46142478 Ry
     Harris-Foulkes estimate   =    -175.46143664 Ry
     estimated scf accuracy    <       0.00005142 Ry

     iteration # 12     ecut=    70.00 Ry     beta= 0.70
     Davidson diagonalization with overlap
     ethr =  2.14E-07,  avg # of iterations =  2.2

     total cpu time spent up to now is     7765.0 secs

     total energy              =    -175.46143142 Ry
     Harris-Foulkes estimate   =    -175.46143126 Ry
     estimated scf accuracy    <       0.00000092 Ry

     iteration # 13     ecut=    70.00 Ry     beta= 0.70
     Davidson diagonalization with overlap
     ethr =  3.85E-09,  avg # of iterations =  3.6

     total cpu time spent up to now is     7885.7 secs

     total energy              =    -175.46143111 Ry
     Harris-Foulkes estimate   =    -175.46143201 Ry
     estimated scf accuracy    <       0.00000517 Ry

     iteration # 14     ecut=    70.00 Ry     beta= 0.70
     Davidson diagonalization with overlap
     ethr =  3.85E-09,  avg # of iterations =  2.5

     total cpu time spent up to now is     7991.8 secs

     total energy              =    -175.46143121 Ry
     Harris-Foulkes estimate   =    -175.46143128 Ry
     estimated scf accuracy    <       0.00000131 Ry

     iteration # 15     ecut=    70.00 Ry     beta= 0.70
     Davidson diagonalization with overlap
     ethr =  3.85E-09,  avg # of iterations =  1.0

     total cpu time spent up to now is     8080.9 secs

     total energy              =    -175.46143111 Ry
     Harris-Foulkes estimate   =    -175.46143122 Ry
     estimated scf accuracy    <       0.00000088 Ry

     iteration # 16     ecut=    70.00 Ry     beta= 0.70
     Davidson diagonalization with overlap
     ethr =  3.68E-09,  avg # of iterations =  1.3

     total cpu time spent up to now is     8171.6 secs

     total energy              =    -175.46143109 Ry
     Harris-Foulkes estimate   =    -175.46143114 Ry
     estimated scf accuracy    <       0.00000022 Ry

     iteration # 17     ecut=    70.00 Ry     beta= 0.70
     Davidson diagonalization with overlap
     ethr =  9.21E-10,  avg # of iterations =  2.7

     total cpu time spent up to now is     8272.8 secs

     total energy              =    -175.46143112 Ry
     Harris-Foulkes estimate   =    -175.46143112 Ry
     estimated scf accuracy    <          6.0E-10 Ry

     iteration # 18     ecut=    70.00 Ry     beta= 0.70
     Davidson diagonalization with overlap
     ethr =  2.52E-12,  avg # of iterations =  3.0

     total cpu time spent up to now is     8398.0 secs

     total energy              =    -175.46143112 Ry
     Harris-Foulkes estimate   =    -175.46143112 Ry
     estimated scf accuracy    <          3.9E-10 Ry

     iteration # 19     ecut=    70.00 Ry     beta= 0.70
     Davidson diagonalization with overlap
     ethr =  1.62E-12,  avg # of iterations =  1.0

     total cpu time spent up to now is     8487.0 secs

     total energy              =    -175.46143112 Ry
     Harris-Foulkes estimate   =    -175.46143112 Ry
     estimated scf accuracy    <          1.0E-10 Ry

     iteration # 20     ecut=    70.00 Ry     beta= 0.70
     Davidson diagonalization with overlap
     ethr =  4.29E-13,  avg # of iterations =  2.8

     total cpu time spent up to now is     8587.7 secs

     End of self-consistent calculation

     Number of k-points >= 100: set verbosity='high' to print the bands.

     the Fermi energy is     8.3224 ev

!    total energy              =    -175.46143112 Ry
     Harris-Foulkes estimate   =    -175.46143112 Ry
     estimated scf accuracy    <          2.3E-13 Ry

     The total energy is the sum of the following terms:

     one-electron contribution =     -76.72405034 Ry
     hartree contribution      =      46.90037860 Ry
     xc contribution           =     -45.52891777 Ry
     ewald contribution        =    -100.10869379 Ry
     smearing contrib. (-TS)   =      -0.00014782 Ry

     convergence has been achieved in  20 iterations

     Forces acting on atoms (cartesian axes, Ry/au):

     atom    1 type  1   force =     0.00000000    0.00000000    0.00000000
     atom    2 type  2   force =    -0.00012920    0.00012920    0.01099093
     atom    3 type  2   force =     0.00012920   -0.00012920   -0.01099093

     Total force =     0.015546     Total SCF correction =     0.000001


     Computing stress (Cartesian axis) and pressure

          total   stress  (Ry/bohr**3)                   (kbar)     P=    1.44
  -0.00000706  -0.00000075  -0.00000071         -1.04     -0.11     -0.10
  -0.00000075  -0.00000706   0.00000071         -0.11     -1.04      0.10
  -0.00000071   0.00000071   0.00004339         -0.10      0.10      6.38


     number of scf cycles    =   4
     number of bfgs steps    =   3

     enthalpy old            =    -175.4611235976 Ry
     enthalpy new            =    -175.4614311165 Ry

     CASE: enthalpy_new < enthalpy_old

     new trust radius        =       0.0175942183 bohr
     new conv_thr            =            1.0E-10 Ry

     new unit-cell volume =    413.35786 a.u.^3 (    61.25331 Ang^3 )
     density =      5.57935 g/cm^3

CELL_PARAMETERS (angstrom)
   3.334707453  -0.893264665   0.029140630
  -0.893264665   3.334707453  -0.029140630
  -0.041997944   0.041997944   5.933467344

ATOMIC_POSITIONS (crystal)
Ti       0.000000000   0.000000000   0.000000000
Se       0.333520379   0.666479620   0.256927676
Se       0.666479620   0.333520379  -0.256927676



     Writing output data file TiSe2.save/
     NEW-OLD atomic charge density approx. for the potential
     extrapolated charge   23.86966, renormalised to   24.00000

     total cpu time spent up to now is     8602.4 secs

     Self-consistent Calculation

     iteration #  1     ecut=    70.00 Ry     beta= 0.70
     Davidson diagonalization with overlap
     ethr =  1.00E-06,  avg # of iterations =  5.0

     total cpu time spent up to now is     8785.4 secs

     total energy              =    -175.38334044 Ry
     Harris-Foulkes estimate   =    -175.80339890 Ry
     estimated scf accuracy    <       0.08064619 Ry

     iteration #  2     ecut=    70.00 Ry     beta= 0.70
     Davidson diagonalization with overlap
     ethr =  3.36E-04,  avg # of iterations =  4.0

     total cpu time spent up to now is     8934.0 secs

     total energy              =    -175.37292055 Ry
     Harris-Foulkes estimate   =    -175.71536452 Ry
     estimated scf accuracy    <       1.46823485 Ry

     iteration #  3     ecut=    70.00 Ry     beta= 0.70
     Davidson diagonalization with overlap
     ethr =  3.36E-04,  avg # of iterations =  3.9

     total cpu time spent up to now is     9074.3 secs

     total energy              =    -175.46522232 Ry
     Harris-Foulkes estimate   =    -175.47399022 Ry
     estimated scf accuracy    <       0.09752833 Ry

     iteration #  4     ecut=    70.00 Ry     beta= 0.70
     Davidson diagonalization with overlap
     ethr =  3.36E-04,  avg # of iterations =  1.0

     total cpu time spent up to now is     9163.3 secs

     total energy              =    -175.46152807 Ry
     Harris-Foulkes estimate   =    -175.46650825 Ry
     estimated scf accuracy    <       0.04839568 Ry

     iteration #  5     ecut=    70.00 Ry     beta= 0.70
     Davidson diagonalization with overlap
     ethr =  2.02E-04,  avg # of iterations =  1.0

     total cpu time spent up to now is     9252.1 secs

     total energy              =    -175.46216202 Ry
     Harris-Foulkes estimate   =    -175.46264680 Ry
     estimated scf accuracy    <       0.01663655 Ry

     iteration #  6     ecut=    70.00 Ry     beta= 0.70
     Davidson diagonalization with overlap
     ethr =  6.93E-05,  avg # of iterations =  1.6

     total cpu time spent up to now is     9344.5 secs

     total energy              =    -175.46210694 Ry
     Harris-Foulkes estimate   =    -175.46247838 Ry
     estimated scf accuracy    <       0.01087010 Ry

     iteration #  7     ecut=    70.00 Ry     beta= 0.70
     Davidson diagonalization with overlap
     ethr =  4.53E-05,  avg # of iterations =  1.5

     total cpu time spent up to now is     9436.5 secs

     total energy              =    -175.46189983 Ry
     Harris-Foulkes estimate   =    -175.46229336 Ry
     estimated scf accuracy    <       0.00659841 Ry

     iteration #  8     ecut=    70.00 Ry     beta= 0.70
     Davidson diagonalization with overlap
     ethr =  2.75E-05,  avg # of iterations =  1.4

     total cpu time spent up to now is     9527.5 secs

     total energy              =    -175.46177508 Ry
     Harris-Foulkes estimate   =    -175.46202463 Ry
     estimated scf accuracy    <       0.00328141 Ry

     iteration #  9     ecut=    70.00 Ry     beta= 0.70
     Davidson diagonalization with overlap
     ethr =  1.37E-05,  avg # of iterations =  1.5

     total cpu time spent up to now is     9620.2 secs

     total energy              =    -175.46188728 Ry
     Harris-Foulkes estimate   =    -175.46187479 Ry
     estimated scf accuracy    <       0.00121369 Ry

     iteration # 10     ecut=    70.00 Ry     beta= 0.70
     Davidson diagonalization with overlap
     ethr =  5.06E-06,  avg # of iterations =  1.0

     total cpu time spent up to now is     9709.5 secs

     total energy              =    -175.46173375 Ry
     Harris-Foulkes estimate   =    -175.46189327 Ry
     estimated scf accuracy    <       0.00125136 Ry

     iteration # 11     ecut=    70.00 Ry     beta= 0.70
     Davidson diagonalization with overlap
     ethr =  5.06E-06,  avg # of iterations =  1.9

     total cpu time spent up to now is     9803.5 secs

     total energy              =    -175.46176847 Ry
     Harris-Foulkes estimate   =    -175.46179189 Ry
     estimated scf accuracy    <       0.00016486 Ry

     iteration # 12     ecut=    70.00 Ry     beta= 0.70
     Davidson diagonalization with overlap
     ethr =  6.87E-07,  avg # of iterations =  1.9

     total cpu time spent up to now is     9898.5 secs

     total energy              =    -175.46177733 Ry
     Harris-Foulkes estimate   =    -175.46177925 Ry
     estimated scf accuracy    <       0.00001980 Ry

     iteration # 13     ecut=    70.00 Ry     beta= 0.70
     Davidson diagonalization with overlap
     ethr =  8.25E-08,  avg # of iterations =  2.2

     total cpu time spent up to now is     9995.6 secs

     total energy              =    -175.46177830 Ry
     Harris-Foulkes estimate   =    -175.46177875 Ry
     estimated scf accuracy    <       0.00000393 Ry

     iteration # 14     ecut=    70.00 Ry     beta= 0.70
     Davidson diagonalization with overlap
     ethr =  1.64E-08,  avg # of iterations =  1.6

     total cpu time spent up to now is    10088.4 secs

     total energy              =    -175.46177834 Ry
     Harris-Foulkes estimate   =    -175.46177845 Ry
     estimated scf accuracy    <       0.00000139 Ry

     iteration # 15     ecut=    70.00 Ry     beta= 0.70
     Davidson diagonalization with overlap
     ethr =  5.80E-09,  avg # of iterations =  1.4

     total cpu time spent up to now is    10180.3 secs

     total energy              =    -175.46177836 Ry
     Harris-Foulkes estimate   =    -175.46177839 Ry
     estimated scf accuracy    <       0.00000050 Ry

     iteration # 16     ecut=    70.00 Ry     beta= 0.70
     Davidson diagonalization with overlap
     ethr =  2.10E-09,  avg # of iterations =  2.0

     total cpu time spent up to now is    10275.0 secs

     total energy              =    -175.46177836 Ry
     Harris-Foulkes estimate   =    -175.46177838 Ry
     estimated scf accuracy    <       0.00000024 Ry

     iteration # 17     ecut=    70.00 Ry     beta= 0.70
     Davidson diagonalization with overlap
     ethr =  9.91E-10,  avg # of iterations =  1.1

     total cpu time spent up to now is    10364.5 secs

     total energy              =    -175.46177836 Ry
     Harris-Foulkes estimate   =    -175.46177836 Ry
     estimated scf accuracy    <       0.00000010 Ry

     iteration # 18     ecut=    70.00 Ry     beta= 0.70
     Davidson diagonalization with overlap
     ethr =  4.18E-10,  avg # of iterations =  1.5

     total cpu time spent up to now is    10456.7 secs

     total energy              =    -175.46177835 Ry
     Harris-Foulkes estimate   =    -175.46177836 Ry
     estimated scf accuracy    <       0.00000004 Ry

     iteration # 19     ecut=    70.00 Ry     beta= 0.70
     Davidson diagonalization with overlap
     ethr =  1.64E-10,  avg # of iterations =  2.6

     total cpu time spent up to now is    10556.5 secs

     total energy              =    -175.46177836 Ry
     Harris-Foulkes estimate   =    -175.46177836 Ry
     estimated scf accuracy    <          3.5E-10 Ry

     iteration # 20     ecut=    70.00 Ry     beta= 0.70
     Davidson diagonalization with overlap
     ethr =  1.47E-12,  avg # of iterations =  3.0

     total cpu time spent up to now is    10668.6 secs

     total energy              =    -175.46177836 Ry
     Harris-Foulkes estimate   =    -175.46177836 Ry
     estimated scf accuracy    <          3.5E-10 Ry

     iteration # 21     ecut=    70.00 Ry     beta= 0.70
     Davidson diagonalization with overlap
     ethr =  1.45E-12,  avg # of iterations =  1.6

     total cpu time spent up to now is    10760.8 secs

     End of self-consistent calculation

     Number of k-points >= 100: set verbosity='high' to print the bands.

     the Fermi energy is     8.3953 ev

!    total energy              =    -175.46177836 Ry
     Harris-Foulkes estimate   =    -175.46177836 Ry
     estimated scf accuracy    <          9.6E-12 Ry

     The total energy is the sum of the following terms:

     one-electron contribution =     -76.02958917 Ry
     hartree contribution      =      46.62556829 Ry
     xc contribution           =     -45.53127633 Ry
     ewald contribution        =    -100.52634535 Ry
     smearing contrib. (-TS)   =      -0.00013580 Ry

     convergence has been achieved in  21 iterations

     Forces acting on atoms (cartesian axes, Ry/au):

     atom    1 type  1   force =     0.00000000    0.00000000    0.00000000
     atom    2 type  2   force =    -0.00017305    0.00017305    0.00837234
     atom    3 type  2   force =     0.00017305   -0.00017305   -0.00837234

     Total force =     0.011845     Total SCF correction =     0.000007


     Computing stress (Cartesian axis) and pressure

          total   stress  (Ry/bohr**3)                   (kbar)     P=    1.17
   0.00000351   0.00000023  -0.00000138          0.52      0.03     -0.20
   0.00000023   0.00000351   0.00000138          0.03      0.52      0.20
  -0.00000138   0.00000138   0.00001692         -0.20      0.20      2.49


     number of scf cycles    =   5
     number of bfgs steps    =   4

     enthalpy old            =    -175.4614311165 Ry
     enthalpy new            =    -175.4617783569 Ry

     CASE: enthalpy_new < enthalpy_old

     new trust radius        =       0.0263989945 bohr
     new conv_thr            =            1.0E-10 Ry

     new unit-cell volume =    410.33024 a.u.^3 (    60.80467 Ang^3 )
     density =      5.62052 g/cm^3

CELL_PARAMETERS (angstrom)
   3.322827836  -0.890387882   0.029127357
  -0.890387882   3.322827836  -0.029127357
  -0.041840964   0.041840964   5.932513682

ATOMIC_POSITIONS (crystal)
Ti       0.000000000   0.000000000  -0.000000000
Se       0.333520832   0.666479167   0.259281957
Se       0.666479167   0.333520832  -0.259281957



     Writing output data file TiSe2.save/
     NEW-OLD atomic charge density approx. for the potential
     extrapolated charge   23.82293, renormalised to   24.00000

     total cpu time spent up to now is    10775.6 secs

     Self-consistent Calculation

     iteration #  1     ecut=    70.00 Ry     beta= 0.70
     Davidson diagonalization with overlap
     ethr =  1.00E-06,  avg # of iterations =  5.6

     total cpu time spent up to now is    10971.1 secs

     total energy              =    -175.30865198 Ry
     Harris-Foulkes estimate   =    -175.92370668 Ry
     estimated scf accuracy    <       0.15807966 Ry

     iteration #  2     ecut=    70.00 Ry     beta= 0.70
     Davidson diagonalization with overlap
     ethr =  6.59E-04,  avg # of iterations =  4.0

     total cpu time spent up to now is    11120.9 secs

     total energy              =    -175.32875744 Ry
     Harris-Foulkes estimate   =    -175.92417027 Ry
     estimated scf accuracy    <       2.38316701 Ry

     iteration #  3     ecut=    70.00 Ry     beta= 0.70
     Davidson diagonalization with overlap
     ethr =  6.59E-04,  avg # of iterations =  4.0

     total cpu time spent up to now is    11265.2 secs

     total energy              =    -175.46965136 Ry
     Harris-Foulkes estimate   =    -175.49040737 Ry
     estimated scf accuracy    <       0.20878949 Ry

     iteration #  4     ecut=    70.00 Ry     beta= 0.70
     Davidson diagonalization with overlap
     ethr =  6.59E-04,  avg # of iterations =  1.0

     total cpu time spent up to now is    11354.2 secs

     total energy              =    -175.46100950 Ry
     Harris-Foulkes estimate   =    -175.47261156 Ry
     estimated scf accuracy    <       0.10354441 Ry

     iteration #  5     ecut=    70.00 Ry     beta= 0.70
     Davidson diagonalization with overlap
     ethr =  4.31E-04,  avg # of iterations =  1.1

     total cpu time spent up to now is    11443.5 secs

     total energy              =    -175.46256121 Ry
     Harris-Foulkes estimate   =    -175.46368908 Ry
     estimated scf accuracy    <       0.03329487 Ry

     iteration #  6     ecut=    70.00 Ry     beta= 0.70
     Davidson diagonalization with overlap
     ethr =  1.39E-04,  avg # of iterations =  1.7

     total cpu time spent up to now is    11536.8 secs

     total energy              =    -175.46288202 Ry
     Harris-Foulkes estimate   =    -175.46336827 Ry
     estimated scf accuracy    <       0.01994891 Ry

     iteration #  7     ecut=    70.00 Ry     beta= 0.70
     Davidson diagonalization with overlap
     ethr =  8.31E-05,  avg # of iterations =  1.6

     total cpu time spent up to now is    11629.5 secs

     total energy              =    -175.46256243 Ry
     Harris-Foulkes estimate   =    -175.46323477 Ry
     estimated scf accuracy    <       0.01326258 Ry

     iteration #  8     ecut=    70.00 Ry     beta= 0.70
     Davidson diagonalization with overlap
     ethr =  5.53E-05,  avg # of iterations =  1.2

     total cpu time spent up to now is    11719.6 secs

     total energy              =    -175.46164155 Ry
     Harris-Foulkes estimate   =    -175.46273416 Ry
     estimated scf accuracy    <       0.00767897 Ry

     iteration #  9     ecut=    70.00 Ry     beta= 0.70
     Davidson diagonalization with overlap
     ethr =  3.20E-05,  avg # of iterations =  1.7

     total cpu time spent up to now is    11813.6 secs

     total energy              =    -175.46206638 Ry
     Harris-Foulkes estimate   =    -175.46210563 Ry
     estimated scf accuracy    <       0.00067150 Ry

     iteration # 10     ecut=    70.00 Ry     beta= 0.70
     Davidson diagonalization with overlap
     ethr =  2.80E-06,  avg # of iterations =  2.5

     total cpu time spent up to now is    11912.7 secs

     total energy              =    -175.46207701 Ry
     Harris-Foulkes estimate   =    -175.46210644 Ry
     estimated scf accuracy    <       0.00025104 Ry

     iteration # 11     ecut=    70.00 Ry     beta= 0.70
     Davidson diagonalization with overlap
     ethr =  1.05E-06,  avg # of iterations =  1.4

     total cpu time spent up to now is    12003.9 secs

     total energy              =    -175.46207960 Ry
     Harris-Foulkes estimate   =    -175.46208744 Ry
     estimated scf accuracy    <       0.00005252 Ry

     iteration # 12     ecut=    70.00 Ry     beta= 0.70
     Davidson diagonalization with overlap
     ethr =  2.19E-07,  avg # of iterations =  2.8

     total cpu time spent up to now is    12104.9 secs

     total energy              =    -175.46208368 Ry
     Harris-Foulkes estimate   =    -175.46208425 Ry
     estimated scf accuracy    <       0.00000248 Ry

     iteration # 13     ecut=    70.00 Ry     beta= 0.70
     Davidson diagonalization with overlap
     ethr =  1.03E-08,  avg # of iterations =  2.6

     total cpu time spent up to now is    12210.0 secs

     total energy              =    -175.46208411 Ry
     Harris-Foulkes estimate   =    -175.46208413 Ry
     estimated scf accuracy    <       0.00000006 Ry

     iteration # 14     ecut=    70.00 Ry     beta= 0.70
     Davidson diagonalization with overlap
     ethr =  2.68E-10,  avg # of iterations =  2.9

     total cpu time spent up to now is    12321.8 secs

     total energy              =    -175.46208411 Ry
     Harris-Foulkes estimate   =    -175.46208414 Ry
     estimated scf accuracy    <       0.00000007 Ry

     iteration # 15     ecut=    70.00 Ry     beta= 0.70
     Davidson diagonalization with overlap
     ethr =  2.68E-10,  avg # of iterations =  3.0

     total cpu time spent up to now is    12429.4 secs

     total energy              =    -175.46208412 Ry
     Harris-Foulkes estimate   =    -175.46208414 Ry
     estimated scf accuracy    <       0.00000008 Ry

     iteration # 16     ecut=    70.00 Ry     beta= 0.70
     Davidson diagonalization with overlap
     ethr =  2.68E-10,  avg # of iterations =  1.4

     total cpu time spent up to now is    12521.2 secs

     total energy              =    -175.46208413 Ry
     Harris-Foulkes estimate   =    -175.46208413 Ry
     estimated scf accuracy    <          6.0E-09 Ry

     iteration # 17     ecut=    70.00 Ry     beta= 0.70
     Davidson diagonalization with overlap
     ethr =  2.51E-11,  avg # of iterations =  2.8

     total cpu time spent up to now is    12622.5 secs

     total energy              =    -175.46208413 Ry
     Harris-Foulkes estimate   =    -175.46208413 Ry
     estimated scf accuracy    <          3.3E-09 Ry

     iteration # 18     ecut=    70.00 Ry     beta= 0.70
     Davidson diagonalization with overlap
     ethr =  1.38E-11,  avg # of iterations =  1.1

     total cpu time spent up to now is    12712.0 secs

     total energy              =    -175.46208413 Ry
     Harris-Foulkes estimate   =    -175.46208413 Ry
     estimated scf accuracy    <          1.8E-09 Ry

     iteration # 19     ecut=    70.00 Ry     beta= 0.70
     Davidson diagonalization with overlap
     ethr =  7.41E-12,  avg # of iterations =  2.2

     total cpu time spent up to now is    12807.8 secs

     End of self-consistent calculation

     Number of k-points >= 100: set verbosity='high' to print the bands.

     the Fermi energy is     8.4962 ev

!    total energy              =    -175.46208413 Ry
     Harris-Foulkes estimate   =    -175.46208413 Ry
     estimated scf accuracy    <          6.2E-11 Ry

     The total energy is the sum of the following terms:

     one-electron contribution =     -74.95375061 Ry
     hartree contribution      =      46.18684926 Ry
     xc contribution           =     -45.53325120 Ry
     ewald contribution        =    -101.16181513 Ry
     smearing contrib. (-TS)   =      -0.00011646 Ry

     convergence has been achieved in  19 iterations

     Forces acting on atoms (cartesian axes, Ry/au):

     atom    1 type  1   force =     0.00000000    0.00000000    0.00000000
     atom    2 type  2   force =    -0.00017251    0.00017251    0.00426481
     atom    3 type  2   force =     0.00017251   -0.00017251   -0.00426481

     Total force =     0.006041     Total SCF correction =     0.000004


     Computing stress (Cartesian axis) and pressure

          total   stress  (Ry/bohr**3)                   (kbar)     P=    0.13
   0.00001390   0.00000102  -0.00000147          2.04      0.15     -0.22
   0.00000102   0.00001390   0.00000147          0.15      2.04      0.22
  -0.00000147   0.00000147  -0.00002516         -0.22      0.22     -3.70


     number of scf cycles    =   6
     number of bfgs steps    =   5

     enthalpy old            =    -175.4617783569 Ry
     enthalpy new            =    -175.4620841280 Ry

     CASE: enthalpy_new < enthalpy_old

     new trust radius        =       0.0230295929 bohr
     new conv_thr            =            1.0E-10 Ry

     new unit-cell volume =    407.80887 a.u.^3 (    60.43104 Ang^3 )
     density =      5.65527 g/cm^3

CELL_PARAMETERS (angstrom)
   3.314923437  -0.888403359   0.028937159
  -0.888403359   3.314923437  -0.028937159
  -0.041939801   0.041939801   5.924349762

ATOMIC_POSITIONS (crystal)
Ti       0.000000000   0.000000000  -0.000000000
Se       0.333503064   0.666496935   0.261336002
Se       0.666496935   0.333503064  -0.261336002



     Writing output data file TiSe2.save/
     NEW-OLD atomic charge density approx. for the potential
     extrapolated charge   23.85162, renormalised to   24.00000

     total cpu time spent up to now is    12822.4 secs

     Self-consistent Calculation

     iteration #  1     ecut=    70.00 Ry     beta= 0.70
     Davidson diagonalization with overlap
     ethr =  1.00E-06,  avg # of iterations =  5.2

     total cpu time spent up to now is    13002.7 secs

     total energy              =    -175.35973286 Ry
     Harris-Foulkes estimate   =    -175.84143220 Ry
     estimated scf accuracy    <       0.10533507 Ry

     iteration #  2     ecut=    70.00 Ry     beta= 0.70
     Davidson diagonalization with overlap
     ethr =  4.39E-04,  avg # of iterations =  4.0

     total cpu time spent up to now is    13151.8 secs

     total energy              =    -175.35433489 Ry
     Harris-Foulkes estimate   =    -175.78958062 Ry
     estimated scf accuracy    <       1.83655361 Ry

     iteration #  3     ecut=    70.00 Ry     beta= 0.70
     Davidson diagonalization with overlap
     ethr =  4.39E-04,  avg # of iterations =  4.0

     total cpu time spent up to now is    13293.8 secs

     total energy              =    -175.46680384 Ry
     Harris-Foulkes estimate   =    -175.47924706 Ry
     estimated scf accuracy    <       0.13343532 Ry

     iteration #  4     ecut=    70.00 Ry     beta= 0.70
     Davidson diagonalization with overlap
     ethr =  4.39E-04,  avg # of iterations =  1.0

     total cpu time spent up to now is    13382.5 secs

     total energy              =    -175.46173275 Ry
     Harris-Foulkes estimate   =    -175.46862621 Ry
     estimated scf accuracy    <       0.06559157 Ry

     iteration #  5     ecut=    70.00 Ry     beta= 0.70
     Davidson diagonalization with overlap
     ethr =  2.73E-04,  avg # of iterations =  1.0

     total cpu time spent up to now is    13471.3 secs

     total energy              =    -175.46255173 Ry
     Harris-Foulkes estimate   =    -175.46329302 Ry
     estimated scf accuracy    <       0.02215700 Ry

     iteration #  6     ecut=    70.00 Ry     beta= 0.70
     Davidson diagonalization with overlap
     ethr =  9.23E-05,  avg # of iterations =  1.7

     total cpu time spent up to now is    13563.8 secs

     total energy              =    -175.46253159 Ry
     Harris-Foulkes estimate   =    -175.46303100 Ry
     estimated scf accuracy    <       0.01356155 Ry

     iteration #  7     ecut=    70.00 Ry     beta= 0.70
     Davidson diagonalization with overlap
     ethr =  5.65E-05,  avg # of iterations =  1.7

     total cpu time spent up to now is    13656.8 secs

     total energy              =    -175.46243499 Ry
     Harris-Foulkes estimate   =    -175.46281373 Ry
     estimated scf accuracy    <       0.00769058 Ry

     iteration #  8     ecut=    70.00 Ry     beta= 0.70
     Davidson diagonalization with overlap
     ethr =  3.20E-05,  avg # of iterations =  1.5

     total cpu time spent up to now is    13748.4 secs

     total energy              =    -175.46240855 Ry
     Harris-Foulkes estimate   =    -175.46256993 Ry
     estimated scf accuracy    <       0.00422761 Ry

     iteration #  9     ecut=    70.00 Ry     beta= 0.70
     Davidson diagonalization with overlap
     ethr =  1.76E-05,  avg # of iterations =  1.1

     total cpu time spent up to now is    13838.4 secs

     total energy              =    -175.46210856 Ry
     Harris-Foulkes estimate   =    -175.46244495 Ry
     estimated scf accuracy    <       0.00284371 Ry

     iteration # 10     ecut=    70.00 Ry     beta= 0.70
     Davidson diagonalization with overlap
     ethr =  1.18E-05,  avg # of iterations =  1.5

     total cpu time spent up to now is    13930.6 secs

     total energy              =    -175.46212316 Ry
     Harris-Foulkes estimate   =    -175.46221883 Ry
     estimated scf accuracy    <       0.00051648 Ry

     iteration # 11     ecut=    70.00 Ry     beta= 0.70
     Davidson diagonalization with overlap
     ethr =  2.15E-06,  avg # of iterations =  2.8

     total cpu time spent up to now is    14032.8 secs

     total energy              =    -175.46219163 Ry
     Harris-Foulkes estimate   =    -175.46219197 Ry
     estimated scf accuracy    <       0.00000104 Ry

     iteration # 12     ecut=    70.00 Ry     beta= 0.70
     Davidson diagonalization with overlap
     ethr =  4.32E-09,  avg # of iterations =  3.4

     total cpu time spent up to now is    14161.2 secs

     total energy              =    -175.46219274 Ry
     Harris-Foulkes estimate   =    -175.46219276 Ry
     estimated scf accuracy    <       0.00000010 Ry

     iteration # 13     ecut=    70.00 Ry     beta= 0.70
     Davidson diagonalization with overlap
     ethr =  3.97E-10,  avg # of iterations =  2.4

     total cpu time spent up to now is    14263.4 secs

     total energy              =    -175.46219277 Ry
     Harris-Foulkes estimate   =    -175.46219276 Ry
     estimated scf accuracy    <       0.00000004 Ry

     iteration # 14     ecut=    70.00 Ry     beta= 0.70
     Davidson diagonalization with overlap
     ethr =  1.86E-10,  avg # of iterations =  2.9

     total cpu time spent up to now is    14371.0 secs

     total energy              =    -175.46219277 Ry
     Harris-Foulkes estimate   =    -175.46219279 Ry
     estimated scf accuracy    <       0.00000027 Ry

     iteration # 15     ecut=    70.00 Ry     beta= 0.70
     Davidson diagonalization with overlap
     ethr =  1.86E-10,  avg # of iterations =  1.0

     total cpu time spent up to now is    14460.1 secs

     total energy              =    -175.46219274 Ry
     Harris-Foulkes estimate   =    -175.46219277 Ry
     estimated scf accuracy    <       0.00000021 Ry

     iteration # 16     ecut=    70.00 Ry     beta= 0.70
     Davidson diagonalization with overlap
     ethr =  1.86E-10,  avg # of iterations =  2.9

     total cpu time spent up to now is    14564.4 secs

     total energy              =    -175.46219275 Ry
     Harris-Foulkes estimate   =    -175.46219275 Ry
     estimated scf accuracy    <          8.4E-09 Ry

     iteration # 17     ecut=    70.00 Ry     beta= 0.70
     Davidson diagonalization with overlap
     ethr =  3.50E-11,  avg # of iterations =  1.8

     total cpu time spent up to now is    14657.9 secs

     End of self-consistent calculation

     Number of k-points >= 100: set verbosity='high' to print the bands.

     the Fermi energy is     8.5840 ev

!    total energy              =    -175.46219275 Ry
     Harris-Foulkes estimate   =    -175.46219275 Ry
     estimated scf accuracy    <          5.6E-11 Ry

     The total energy is the sum of the following terms:

     one-electron contribution =     -73.92754398 Ry
     hartree contribution      =      45.75700191 Ry
     xc contribution           =     -45.53461574 Ry
     ewald contribution        =    -101.75692733 Ry
     smearing contrib. (-TS)   =      -0.00010761 Ry

     convergence has been achieved in  17 iterations

     Forces acting on atoms (cartesian axes, Ry/au):

     atom    1 type  1   force =     0.00000000    0.00000000    0.00000000
     atom    2 type  2   force =    -0.00011783    0.00011783    0.00091721
     atom    3 type  2   force =     0.00011783   -0.00011783   -0.00091721

     Total force =     0.001318     Total SCF correction =     0.000000


     Computing stress (Cartesian axis) and pressure

          total   stress  (Ry/bohr**3)                   (kbar)     P=   -0.90
   0.00001940   0.00000107  -0.00000075          2.85      0.16     -0.11
   0.00000107   0.00001940   0.00000075          0.16      2.85      0.11
  -0.00000075   0.00000075  -0.00005710         -0.11      0.11     -8.40


     number of scf cycles    =   7
     number of bfgs steps    =   6

     enthalpy old            =    -175.4620841280 Ry
     enthalpy new            =    -175.4621927497 Ry

     CASE: enthalpy_new < enthalpy_old

     new trust radius        =       0.0089965579 bohr
     new conv_thr            =            1.0E-10 Ry

     new unit-cell volume =    406.82980 a.u.^3 (    60.28596 Ang^3 )
     density =      5.66888 g/cm^3

CELL_PARAMETERS (angstrom)
   3.314114609  -0.888147663   0.028767139
  -0.888147663   3.314114609  -0.028767139
  -0.042094092   0.042094092   5.912971478

ATOMIC_POSITIONS (crystal)
Ti       0.000000000   0.000000000  -0.000000000
Se       0.333483797   0.666516202   0.262139318
Se       0.666516202   0.333483797  -0.262139318



     Writing output data file TiSe2.save/
     NEW-OLD atomic charge density approx. for the potential
     extrapolated charge   23.94224, renormalised to   24.00000

     total cpu time spent up to now is    14672.6 secs

     Self-consistent Calculation

     iteration #  1     ecut=    70.00 Ry     beta= 0.70
     Davidson diagonalization with overlap
     ethr =  1.00E-06,  avg # of iterations =  4.3

     total cpu time spent up to now is    14835.2 secs

     total energy              =    -175.44845541 Ry
     Harris-Foulkes estimate   =    -175.60634902 Ry
     estimated scf accuracy    <       0.01408293 Ry

     iteration #  2     ecut=    70.00 Ry     beta= 0.70
     Davidson diagonalization with overlap
     ethr =  5.87E-05,  avg # of iterations =  4.0

     total cpu time spent up to now is    14984.5 secs

     total energy              =    -175.43560933 Ry
     Harris-Foulkes estimate   =    -175.51473902 Ry
     estimated scf accuracy    <       0.40316080 Ry

     iteration #  3     ecut=    70.00 Ry     beta= 0.70
     Davidson diagonalization with overlap
     ethr =  5.87E-05,  avg # of iterations =  4.0

     total cpu time spent up to now is    15123.4 secs

     total energy              =    -175.46266459 Ry
     Harris-Foulkes estimate   =    -175.46373337 Ry
     estimated scf accuracy    <       0.01340595 Ry

     iteration #  4     ecut=    70.00 Ry     beta= 0.70
     Davidson diagonalization with overlap
     ethr =  5.59E-05,  avg # of iterations =  1.0

     total cpu time spent up to now is    15212.4 secs

     total energy              =    -175.46228502 Ry
     Harris-Foulkes estimate   =    -175.46283080 Ry
     estimated scf accuracy    <       0.00643694 Ry

     iteration #  5     ecut=    70.00 Ry     beta= 0.70
     Davidson diagonalization with overlap
     ethr =  2.68E-05,  avg # of iterations =  1.0

     total cpu time spent up to now is    15301.3 secs

     total energy              =    -175.46233335 Ry
     Harris-Foulkes estimate   =    -175.46240002 Ry
     estimated scf accuracy    <       0.00256457 Ry

     iteration #  6     ecut=    70.00 Ry     beta= 0.70
     Davidson diagonalization with overlap
     ethr =  1.07E-05,  avg # of iterations =  1.4

     total cpu time spent up to now is    15392.4 secs

     total energy              =    -175.46221231 Ry
     Harris-Foulkes estimate   =    -175.46236411 Ry
     estimated scf accuracy    <       0.00183520 Ry

     iteration #  7     ecut=    70.00 Ry     beta= 0.70
     Davidson diagonalization with overlap
     ethr =  7.65E-06,  avg # of iterations =  1.9

     total cpu time spent up to now is    15486.8 secs

     total energy              =    -175.46224093 Ry
     Harris-Foulkes estimate   =    -175.46227384 Ry
     estimated scf accuracy    <       0.00052002 Ry

     iteration #  8     ecut=    70.00 Ry     beta= 0.70
     Davidson diagonalization with overlap
     ethr =  2.17E-06,  avg # of iterations =  1.8

     total cpu time spent up to now is    15582.0 secs

     total energy              =    -175.46224287 Ry
     Harris-Foulkes estimate   =    -175.46226162 Ry
     estimated scf accuracy    <       0.00020247 Ry

     iteration #  9     ecut=    70.00 Ry     beta= 0.70
     Davidson diagonalization with overlap
     ethr =  8.44E-07,  avg # of iterations =  1.4

     total cpu time spent up to now is    15673.5 secs

     total energy              =    -175.46224638 Ry
     Harris-Foulkes estimate   =    -175.46224812 Ry
     estimated scf accuracy    <       0.00006227 Ry

     iteration # 10     ecut=    70.00 Ry     beta= 0.70
     Davidson diagonalization with overlap
     ethr =  2.59E-07,  avg # of iterations =  1.2

     total cpu time spent up to now is    15763.6 secs

     total energy              =    -175.46224200 Ry
     Harris-Foulkes estimate   =    -175.46224715 Ry
     estimated scf accuracy    <       0.00004621 Ry

     iteration # 11     ecut=    70.00 Ry     beta= 0.70
     Davidson diagonalization with overlap
     ethr =  1.93E-07,  avg # of iterations =  1.5

     total cpu time spent up to now is    15855.5 secs

     total energy              =    -175.46224305 Ry
     Harris-Foulkes estimate   =    -175.46224393 Ry
     estimated scf accuracy    <       0.00000858 Ry

     iteration # 12     ecut=    70.00 Ry     beta= 0.70
     Davidson diagonalization with overlap
     ethr =  3.58E-08,  avg # of iterations =  2.4

     total cpu time spent up to now is    15954.2 secs

     total energy              =    -175.46224348 Ry
     Harris-Foulkes estimate   =    -175.46224357 Ry
     estimated scf accuracy    <       0.00000152 Ry

     iteration # 13     ecut=    70.00 Ry     beta= 0.70
     Davidson diagonalization with overlap
     ethr =  6.32E-09,  avg # of iterations =  1.3

     total cpu time spent up to now is    16044.9 secs

     total energy              =    -175.46224332 Ry
     Harris-Foulkes estimate   =    -175.46224350 Ry
     estimated scf accuracy    <       0.00000113 Ry

     iteration # 14     ecut=    70.00 Ry     beta= 0.70
     Davidson diagonalization with overlap
     ethr =  4.69E-09,  avg # of iterations =  2.1

     total cpu time spent up to now is    16140.8 secs

     total energy              =    -175.46224344 Ry
     Harris-Foulkes estimate   =    -175.46224344 Ry
     estimated scf accuracy    <          2.9E-09 Ry

     iteration # 15     ecut=    70.00 Ry     beta= 0.70
     Davidson diagonalization with overlap
     ethr =  1.19E-11,  avg # of iterations =  4.2

     total cpu time spent up to now is    16284.3 secs

     total energy              =    -175.46224344 Ry
     Harris-Foulkes estimate   =    -175.46224346 Ry
     estimated scf accuracy    <       0.00000013 Ry

     iteration # 16     ecut=    70.00 Ry     beta= 0.70
     Davidson diagonalization with overlap
     ethr =  1.19E-11,  avg # of iterations =  3.3

     total cpu time spent up to now is    16415.1 secs

     total energy              =    -175.46224344 Ry
     Harris-Foulkes estimate   =    -175.46224344 Ry
     estimated scf accuracy    <       0.00000002 Ry

     iteration # 17     ecut=    70.00 Ry     beta= 0.70
     Davidson diagonalization with overlap
     ethr =  1.19E-11,  avg # of iterations =  3.0

     total cpu time spent up to now is    16524.2 secs

     total energy              =    -175.46224344 Ry
     Harris-Foulkes estimate   =    -175.46224344 Ry
     estimated scf accuracy    <          8.1E-10 Ry

     iteration # 18     ecut=    70.00 Ry     beta= 0.70
     Davidson diagonalization with overlap
     ethr =  3.37E-12,  avg # of iterations =  1.0

     total cpu time spent up to now is    16613.2 secs

     total energy              =    -175.46224344 Ry
     Harris-Foulkes estimate   =    -175.46224344 Ry
     estimated scf accuracy    <          2.3E-10 Ry

     iteration # 19     ecut=    70.00 Ry     beta= 0.70
     Davidson diagonalization with overlap
     ethr =  9.41E-13,  avg # of iterations =  2.9

     total cpu time spent up to now is    16714.6 secs

     End of self-consistent calculation

     Number of k-points >= 100: set verbosity='high' to print the bands.

     the Fermi energy is     8.6206 ev

!    total energy              =    -175.46224344 Ry
     Harris-Foulkes estimate   =    -175.46224344 Ry
     estimated scf accuracy    <          9.3E-13 Ry

     The total energy is the sum of the following terms:

     one-electron contribution =     -73.42564177 Ry
     hartree contribution      =      45.53777464 Ry
     xc contribution           =     -45.53521989 Ry
     ewald contribution        =    -102.03904890 Ry
     smearing contrib. (-TS)   =      -0.00010751 Ry

     convergence has been achieved in  19 iterations

     Forces acting on atoms (cartesian axes, Ry/au):

     atom    1 type  1   force =     0.00000000    0.00000000    0.00000000
     atom    2 type  2   force =    -0.00006617    0.00006617    0.00001633
     atom    3 type  2   force =     0.00006617   -0.00006617   -0.00001633

     Total force =     0.000134     Total SCF correction =     0.000002


     Computing stress (Cartesian axis) and pressure

          total   stress  (Ry/bohr**3)                   (kbar)     P=   -1.22
   0.00001844   0.00000069  -0.00000001          2.71      0.10     -0.00
   0.00000069   0.00001844   0.00000001          0.10      2.71      0.00
  -0.00000001   0.00000001  -0.00006171         -0.00      0.00     -9.08


     number of scf cycles    =   8
     number of bfgs steps    =   7

     enthalpy old            =    -175.4621927497 Ry
     enthalpy new            =    -175.4622434408 Ry

     CASE: enthalpy_new < enthalpy_old

     new trust radius        =       0.0134689755 bohr
     new conv_thr            =            1.0E-10 Ry

     new unit-cell volume =    405.63148 a.u.^3 (    60.10838 Ang^3 )
     density =      5.68563 g/cm^3

CELL_PARAMETERS (angstrom)
   3.314744576  -0.888236545   0.028567227
  -0.888236545   3.314744576  -0.028567227
  -0.042261420   0.042261420   5.893232058

ATOMIC_POSITIONS (crystal)
Ti       0.000000000   0.000000000   0.000000000
Se       0.333456899   0.666543100   0.263066497
Se       0.666543100   0.333456899  -0.263066497



     Writing output data file TiSe2.save/
     NEW-OLD atomic charge density approx. for the potential
     extrapolated charge   23.92910, renormalised to   24.00000

[...]
     ewald contribution        =    -103.51419753 Ry
     smearing contrib. (-TS)   =      -0.00012496 Ry

     convergence has been achieved in   8 iterations

     Forces acting on atoms (cartesian axes, Ry/au):

     atom    1 type  1   force =    -0.00000000   -0.00000000    0.00000000
     atom    2 type  2   force =    -0.00000207    0.00000207    0.00000584
     atom    3 type  2   force =     0.00000207   -0.00000207   -0.00000584

     Total force =     0.000009     Total SCF correction =     0.000001


     Computing stress (Cartesian axis) and pressure

          total   stress  (Ry/bohr**3)                   (kbar)     P=   -0.02
  -0.00000015  -0.00000002   0.00000033         -0.02     -0.00      0.05
  -0.00000002  -0.00000015  -0.00000033         -0.00     -0.02     -0.05
   0.00000033  -0.00000033  -0.00000001          0.05     -0.05     -0.00


     number of scf cycles    =  15
     number of bfgs steps    =  14

     enthalpy old            =    -175.4625113485 Ry
     enthalpy new            =    -175.4625113569 Ry

     CASE: enthalpy_new < enthalpy_old

     Message from routine bfgs:
     history already reset at previous step: stopping
     small trust_radius: resetting bfgs history

     new trust radius        =       0.0000462136 bohr
     new conv_thr            =            1.0E-12 Ry

     new unit-cell volume =    402.52681 a.u.^3 (    59.64832 Ang^3 )
     density =      5.72948 g/cm^3

CELL_PARAMETERS (angstrom)
   3.327036317  -0.891453893   0.029029878
  -0.891453893   3.327036317  -0.029029878
  -0.041268821   0.041268821   5.804914586

ATOMIC_POSITIONS (crystal)
Ti       0.000000000   0.000000000   0.000000000
Se       0.333411966   0.666588033   0.265243677
Se       0.666588033   0.333411966  -0.265243677



     Writing output data file TiSe2.save/
     NEW-OLD atomic charge density approx. for the potential
     extrapolated charge   23.99981, renormalised to   24.00000

     total cpu time spent up to now is    28197.7 secs

     Self-consistent Calculation

     iteration #  1     ecut=    70.00 Ry     beta= 0.70
     Davidson diagonalization with overlap
     ethr =  1.00E-06,  avg # of iterations =  2.0

     Threshold (ethr) on eigenvalues was too large:
     Diagonalizing with lowered threshold

     Davidson diagonalization with overlap
     ethr =  4.60E-10,  avg # of iterations =  1.4

     total cpu time spent up to now is    28385.7 secs

     total energy              =    -175.46251124 Ry
     Harris-Foulkes estimate   =    -175.46296467 Ry
     estimated scf accuracy    <       0.00000013 Ry

     iteration #  2     ecut=    70.00 Ry     beta= 0.70
     Davidson diagonalization with overlap
     ethr =  5.30E-10,  avg # of iterations =  4.0

     total cpu time spent up to now is    28522.8 secs

     total energy              =    -175.46251103 Ry
     Harris-Foulkes estimate   =    -175.46251187 Ry
     estimated scf accuracy    <       0.00000481 Ry

     iteration #  3     ecut=    70.00 Ry     beta= 0.70
     Davidson diagonalization with overlap
     ethr =  5.30E-10,  avg # of iterations =  3.9

     total cpu time spent up to now is    28651.6 secs

     total energy              =    -175.46251136 Ry
     Harris-Foulkes estimate   =    -175.46251137 Ry
     estimated scf accuracy    <       0.00000009 Ry

     iteration #  4     ecut=    70.00 Ry     beta= 0.70
     Davidson diagonalization with overlap
     ethr =  3.60E-10,  avg # of iterations =  1.0

     total cpu time spent up to now is    28740.4 secs

     total energy              =    -175.46251136 Ry
     Harris-Foulkes estimate   =    -175.46251136 Ry
     estimated scf accuracy    <       0.00000003 Ry

     iteration #  5     ecut=    70.00 Ry     beta= 0.70
     Davidson diagonalization with overlap
     ethr =  1.13E-10,  avg # of iterations =  2.7

     total cpu time spent up to now is    28839.2 secs

     total energy              =    -175.46251136 Ry
     Harris-Foulkes estimate   =    -175.46251136 Ry
     estimated scf accuracy    <          4.3E-10 Ry

     iteration #  6     ecut=    70.00 Ry     beta= 0.70
     Davidson diagonalization with overlap
     ethr =  1.81E-12,  avg # of iterations =  2.2

     total cpu time spent up to now is    28940.0 secs

     total energy              =    -175.46251136 Ry
     Harris-Foulkes estimate   =    -175.46251136 Ry
     estimated scf accuracy    <          6.0E-11 Ry

     iteration #  7     ecut=    70.00 Ry     beta= 0.70
     Davidson diagonalization with overlap
     ethr =  2.50E-13,  avg # of iterations =  2.8

     total cpu time spent up to now is    29046.5 secs

     total energy              =    -175.46251136 Ry
     Harris-Foulkes estimate   =    -175.46251136 Ry
     estimated scf accuracy    <          9.2E-12 Ry

     iteration #  8     ecut=    70.00 Ry     beta= 0.70
     Davidson diagonalization with overlap
     ethr =  1.00E-13,  avg # of iterations =  1.0

     total cpu time spent up to now is    29135.3 secs

     total energy              =    -175.46251136 Ry
     Harris-Foulkes estimate   =    -175.46251136 Ry
     estimated scf accuracy    <          2.4E-12 Ry

     iteration #  9     ecut=    70.00 Ry     beta= 0.70
     Davidson diagonalization with overlap
     ethr =  1.00E-13,  avg # of iterations =  1.0

     total cpu time spent up to now is    29224.0 secs

     End of self-consistent calculation

     Number of k-points >= 100: set verbosity='high' to print the bands.

     the Fermi energy is     8.7946 ev

!    total energy              =    -175.46251136 Ry
     Harris-Foulkes estimate   =    -175.46251136 Ry
     estimated scf accuracy    <          4.0E-13 Ry

     The total energy is the sum of the following terms:

     one-electron contribution =     -70.73152518 Ry
     hartree contribution      =      44.32537284 Ry
     xc contribution           =     -45.54173580 Ry
     ewald contribution        =    -103.51449827 Ry
     smearing contrib. (-TS)   =      -0.00012495 Ry

     convergence has been achieved in   9 iterations

     Forces acting on atoms (cartesian axes, Ry/au):

     atom    1 type  1   force =     0.00000000    0.00000000    0.00000000
     atom    2 type  2   force =    -0.00000710    0.00000710    0.00000669
     atom    3 type  2   force =     0.00000710   -0.00000710   -0.00000669

     Total force =     0.000017     Total SCF correction =     0.000001


     Computing stress (Cartesian axis) and pressure

          total   stress  (Ry/bohr**3)                   (kbar)     P=   -0.01
  -0.00000009   0.00000002   0.00000024         -0.01      0.00      0.03
   0.00000002  -0.00000009  -0.00000024          0.00     -0.01     -0.03
   0.00000024  -0.00000024   0.00000003          0.03     -0.03      0.00

     Message from routine bfgs:
     history already reset at previous step: stopping

     bfgs converged in  16 scf cycles and  15 bfgs steps
     (criteria: energy <  1.0E-08 Ry, force <  1.0E-08Ry/Bohr, cell <  5.0E-01kbar)

     End of BFGS Geometry Optimization

     Final enthalpy =    -175.4625113610 Ry
Begin final coordinates
     new unit-cell volume =    402.52681 a.u.^3 (    59.64832 Ang^3 )
     density =      5.72948 g/cm^3

CELL_PARAMETERS (angstrom)
   3.327036317  -0.891453893   0.029029878
  -0.891453893   3.327036317  -0.029029878
  -0.041268821   0.041268821   5.804914586

ATOMIC_POSITIONS (crystal)
Ti       0.000000000   0.000000000   0.000000000
Se       0.333411966   0.666588033   0.265243677
Se       0.666588033   0.333411966  -0.265243677
End final coordinates



     Writing output data file TiSe2.save/

     A final scf calculation at the relaxed structure.
     The G-vectors are recalculated for the final unit cell
     Results may differ from those at the preceding step.

     Parallelization info
     --------------------
     sticks:   dense  smooth     PW     G-vecs:    dense   smooth      PW
     Min          73      25      7                 4807      991     169
     Max          75      26      8                 4810      999     178
     Sum        2347     823    253               153853    31845    5625



     bravais-lattice index     =            0
     lattice parameter (alat)  =       6.6896  a.u.
     unit-cell volume          =     402.5268 (a.u.)^3
     number of atoms/cell      =            3
     number of atomic types    =            2
     number of electrons       =        24.00
     number of Kohn-Sham states=           16
     kinetic-energy cutoff     =      70.0000  Ry
     charge density cutoff     =     800.0000  Ry
     convergence threshold     =      1.0E-12
     mixing beta               =       0.7000
     number of iterations used =            8  plain     mixing
     Exchange-correlation      = LDA ( 1  1  0  0 0 0)

     celldm(1)=   6.689630  celldm(2)=   0.000000  celldm(3)=   0.000000
     celldm(4)=   0.000000  celldm(5)=   0.000000  celldm(6)=   0.000000

     crystal axes: (cart. coord. in units of alat)
               a(1) = (   0.939841  -0.251823   0.008201 )  
               a(2) = (  -0.251823   0.939841  -0.008201 )  
               a(3) = (  -0.011658   0.011658   1.639807 )  

     reciprocal axes: (cart. coord. in units 2 pi/alat)
               b(1) = (  1.146266  0.307185  0.005965 )  
               b(2) = (  0.307185  1.146266 -0.005965 )  
               b(3) = ( -0.004196  0.004196  0.609768 )  


     PseudoPot. # 1 for Ti read from file:
     ./pseudo/Ti.pz-spn-rrkjus_psl.1.0.0.UPF
     MD5 check sum: 2354b1dd637eae4f0b5af1ae1c6b5e32
     Pseudo is Ultrasoft + core correction, Zval = 12.0
     Generated using "atomic" code by A. Dal Corso v.6.2.2
     Using radial grid of 1177 points,  6 beta functions with: 
                l(1) =   0
                l(2) =   0
                l(3) =   1
                l(4) =   1
                l(5) =   2
                l(6) =   2
     Q(r) pseudized with 0 coefficients 


     PseudoPot. # 2 for Se read from file:
     ./pseudo/Se.pz-n-rrkjus_psl.0.2.UPF
     MD5 check sum: 25603cecb1b2b0d484ba6e75ea72c72e
     Pseudo is Ultrasoft + core correction, Zval =  6.0
     Generated using "atomic" code by A. Dal Corso v.5.0.2 svn rev. 9415
     Using radial grid of 1211 points,  4 beta functions with: 
                l(1) =   0
                l(2) =   0
                l(3) =   1
                l(4) =   1
     Q(r) pseudized with 0 coefficients 


     atomic species   valence    mass     pseudopotential
        Ti            12.00    47.86700     Ti( 1.00)
        Se             6.00    78.97100     Se( 1.00)

      4 Sym. Ops., with inversion, found



   Cartesian axes

     site n.     atom                  positions (alat units)
         1           Ti  tau(   1) = (   0.0000000   0.0000000  -0.0000000  )
         2           Se  tau(   2) = (   0.1423997   0.5456180   0.4322161  )
         3           Se  tau(   3) = (   0.5456180   0.1423997  -0.4322161  )

     number of k points=  1098  Marzari-Vanderbilt smearing, width (Ry)=  0.0100

     Number of k-points >= 100: set verbosity='high' to print them.

     Dense  grid:   153853 G-vectors     FFT dimensions: (  60,  60, 100)

     Smooth grid:    31845 G-vectors     FFT dimensions: (  36,  36,  60)

     Estimated max dynamical RAM per process >      60.93 MB

     Estimated total dynamical RAM >       1.90 GB

     Initial potential from superposition of free atoms

     starting charge   23.99862, renormalised to   24.00000
     Starting wfcs are   18 randomized atomic wfcs

     total cpu time spent up to now is    29273.1 secs

     Self-consistent Calculation

     iteration #  1     ecut=    70.00 Ry     beta= 0.70
     Davidson diagonalization with overlap
     ethr =  1.00E-06,  avg # of iterations =  9.6

     total cpu time spent up to now is    29524.9 secs

     total energy              =    -175.42229393 Ry
     Harris-Foulkes estimate   =    -175.49416113 Ry
     estimated scf accuracy    <       0.10438230 Ry

     iteration #  2     ecut=    70.00 Ry     beta= 0.70
     Davidson diagonalization with overlap
     ethr =  4.35E-04,  avg # of iterations =  3.3

     total cpu time spent up to now is    29645.2 secs

     total energy              =    -175.41810498 Ry
     Harris-Foulkes estimate   =    -175.48964292 Ry
     estimated scf accuracy    <       0.14891952 Ry

     iteration #  3     ecut=    70.00 Ry     beta= 0.70
     Davidson diagonalization with overlap
     ethr =  4.35E-04,  avg # of iterations =  3.1

     total cpu time spent up to now is    29758.1 secs

     total energy              =    -175.43781215 Ry
     Harris-Foulkes estimate   =    -175.49362183 Ry
     estimated scf accuracy    <       0.25248183 Ry

     iteration #  4     ecut=    70.00 Ry     beta= 0.70
     Davidson diagonalization with overlap
     ethr =  4.35E-04,  avg # of iterations =  2.7

     total cpu time spent up to now is    29853.8 secs

     total energy              =    -175.46189342 Ry
     Harris-Foulkes estimate   =    -175.46230435 Ry
     estimated scf accuracy    <       0.00110478 Ry

     iteration #  5     ecut=    70.00 Ry     beta= 0.70
     Davidson diagonalization with overlap
     ethr =  4.60E-06,  avg # of iterations =  3.3

     total cpu time spent up to now is    29970.9 secs

     total energy              =    -175.46229755 Ry
     Harris-Foulkes estimate   =    -175.46230883 Ry
     estimated scf accuracy    <       0.00004921 Ry

     iteration #  6     ecut=    70.00 Ry     beta= 0.70
     Davidson diagonalization with overlap
     ethr =  2.05E-07,  avg # of iterations =  2.3

     total cpu time spent up to now is    30061.6 secs

     total energy              =    -175.46230324 Ry
     Harris-Foulkes estimate   =    -175.46230467 Ry
     estimated scf accuracy    <       0.00000607 Ry

     iteration #  7     ecut=    70.00 Ry     beta= 0.70
     Davidson diagonalization with overlap
     ethr =  2.53E-08,  avg # of iterations =  2.5

     total cpu time spent up to now is    30154.0 secs

     total energy              =    -175.46230436 Ry
     Harris-Foulkes estimate   =    -175.46230442 Ry
     estimated scf accuracy    <       0.00000029 Ry

     iteration #  8     ecut=    70.00 Ry     beta= 0.70
     Davidson diagonalization with overlap
     ethr =  1.20E-09,  avg # of iterations =  2.4

     total cpu time spent up to now is    30247.1 secs

     total energy              =    -175.46230441 Ry
     Harris-Foulkes estimate   =    -175.46230441 Ry
     estimated scf accuracy    <          2.5E-10 Ry

     iteration #  9     ecut=    70.00 Ry     beta= 0.70
     Davidson diagonalization with overlap
     ethr =  1.05E-12,  avg # of iterations =  4.3

     total cpu time spent up to now is    30393.7 secs

     total energy              =    -175.46230441 Ry
     Harris-Foulkes estimate   =    -175.46230441 Ry
     estimated scf accuracy    <          2.7E-10 Ry

     iteration # 10     ecut=    70.00 Ry     beta= 0.70
     Davidson diagonalization with overlap
     ethr =  1.05E-12,  avg # of iterations =  1.2

     total cpu time spent up to now is    30475.4 secs

     total energy              =    -175.46230441 Ry
     Harris-Foulkes estimate   =    -175.46230441 Ry
     estimated scf accuracy    <          2.4E-11 Ry

     iteration # 11     ecut=    70.00 Ry     beta= 0.70
     Davidson diagonalization with overlap
     ethr =  1.00E-13,  avg # of iterations =  3.3

     total cpu time spent up to now is    30574.6 secs

     total energy              =    -175.46230441 Ry
     Harris-Foulkes estimate   =    -175.46230441 Ry
     estimated scf accuracy    <          5.0E-12 Ry

     iteration # 12     ecut=    70.00 Ry     beta= 0.70
     Davidson diagonalization with overlap
     ethr =  1.00E-13,  avg # of iterations =  1.0

     total cpu time spent up to now is    30654.9 secs

     End of self-consistent calculation

     Number of k-points >= 100: set verbosity='high' to print the bands.

     the Fermi energy is     8.7947 ev

!    total energy              =    -175.46230441 Ry
     Harris-Foulkes estimate   =    -175.46230441 Ry
     estimated scf accuracy    <          4.4E-13 Ry

     The total energy is the sum of the following terms:

     one-electron contribution =     -70.73062357 Ry
     hartree contribution      =      44.32457968 Ry
     xc contribution           =     -45.54163730 Ry
     ewald contribution        =    -103.51449827 Ry
     smearing contrib. (-TS)   =      -0.00012495 Ry

     convergence has been achieved in  12 iterations

     Forces acting on atoms (cartesian axes, Ry/au):

     atom    1 type  1   force =    -0.00000000   -0.00000000    0.00000000
     atom    2 type  2   force =    -0.00000725    0.00000725    0.00001347
     atom    3 type  2   force =     0.00000725   -0.00000725   -0.00001347

     Total force =     0.000024     Total SCF correction =     0.000001


     Computing stress (Cartesian axis) and pressure

          total   stress  (Ry/bohr**3)                   (kbar)     P=   -0.20
  -0.00000128   0.00000000   0.00000025         -0.19      0.00      0.04
   0.00000000  -0.00000128  -0.00000025          0.00     -0.19     -0.04
   0.00000025  -0.00000025  -0.00000146          0.04     -0.04     -0.21


     Writing output data file TiSe2.save/

     init_run     :     16.91s CPU     75.27s WALL (       2 calls)
     electrons    :   6395.65s CPU  30346.56s WALL (      17 calls)
     update_pot   :     15.19s CPU     16.48s WALL (      15 calls)
     forces       :     44.34s CPU    137.54s WALL (      17 calls)
     stress       :     58.72s CPU     85.43s WALL (      17 calls)

     Called by init_run:
     wfcinit      :     15.00s CPU     72.79s WALL (       2 calls)
     potinit      :      0.48s CPU      0.56s WALL (       2 calls)
     hinit0       :      1.29s CPU      1.68s WALL (       2 calls)

     Called by electrons:
     c_bands      :   5500.40s CPU  25764.48s WALL (     283 calls)
     sum_band     :    883.57s CPU   4554.43s WALL (     283 calls)
     v_of_rho     :      1.24s CPU      3.76s WALL (     297 calls)
     newd         :      8.31s CPU     11.27s WALL (     297 calls)
     mix_rho      :      1.51s CPU      7.29s WALL (     283 calls)

     Called by c_bands:
     init_us_2    :     44.28s CPU     49.14s WALL (  660996 calls)
     cegterg      :   5322.60s CPU  25100.96s WALL (  310734 calls)

     Called by sum_band:
     sum_band:bec :      4.12s CPU      4.75s WALL (  310734 calls)
     addusdens    :      7.93s CPU      7.95s WALL (     283 calls)

     Called by *egterg:
     h_psi        :   3832.11s CPU  20745.71s WALL ( 1043281 calls)
     s_psi        :     76.95s CPU     81.50s WALL ( 1043281 calls)
     g_psi        :      7.44s CPU      7.82s WALL (  730351 calls)
     cdiaghg      :    542.66s CPU    881.95s WALL ( 1021321 calls)

     Called by h_psi:
     h_psi:pot    :   3828.00s CPU  20740.79s WALL ( 1043281 calls)
     h_psi:calbec :    290.38s CPU   1097.70s WALL ( 1043281 calls)
     vloc_psi     :   3459.05s CPU  19555.34s WALL ( 1043281 calls)
     add_vuspsi   :     77.32s CPU     85.40s WALL ( 1043281 calls)

     General routines
     calbec       :    444.63s CPU   1683.54s WALL ( 1447345 calls)
     fft          :      3.90s CPU     18.43s WALL (    1902 calls)
     ffts         :      0.25s CPU      1.17s WALL (     580 calls)
     fftw         :   4108.39s CPU  23536.56s WALL (28940142 calls)
     interpolate  :      0.72s CPU      3.36s WALL (     297 calls)

     Parallel routines
     fft_scatt_xy :     96.35s CPU    105.95s WALL (28942624 calls)
     fft_scatt_yz :   3272.48s CPU  22662.89s WALL (28942624 calls)

     PWSCF        :      1h49m CPU      8h33m WALL


   This run was terminated on:   7:53:55   6May2019            

=------------------------------------------------------------------------------=
   JOB DONE.
=------------------------------------------------------------------------------=
