
     Program PWSCF v.6.4 starts on  1May2020 at 14: 1:19 

     This program is part of the open-source Quantum ESPRESSO suite
     for quantum simulation of materials; please cite
         "P. Giannozzi et al., J. Phys.:Condens. Matter 21 395502 (2009);
         "P. Giannozzi et al., J. Phys.:Condens. Matter 29 465901 (2017);
          URL http://www.quantum-espresso.org", 
     in publications or presentations arising from this work. More details at
     http://www.quantum-espresso.org/quote

     Parallel version (MPI), running on    40 processors

     MPI processes distributed on     5 nodes
     K-points division:     npool     =      40
     Waiting for input...
     Reading input from standard input

     Current dimensions of program PWSCF are:
     Max number of different atomic species (ntypx) = 10
     Max number of k-points (npk) =  40000
     Max angular momentum in pseudopotentials (lmaxx) =  3

     Subspace diagonalization in iterative solution of the eigenvalue problem:
     a serial algorithm will be used


     G-vector sticks info
     --------------------
     sticks:   dense  smooth     PW     G-vecs:    dense   smooth      PW
     Sum        2479     859    265               168117    34781    6045



     bravais-lattice index     =            0
     lattice parameter (alat)  =       6.6896  a.u.
     unit-cell volume          =     440.2643 (a.u.)^3
     number of atoms/cell      =            3
     number of atomic types    =            2
     number of electrons       =        44.00
     number of Kohn-Sham states=           26
     kinetic-energy cutoff     =      70.0000  Ry
     charge density cutoff     =     800.0000  Ry
     convergence threshold     =      1.0E-10
     mixing beta               =       0.7000
     number of iterations used =            8  plain     mixing
     Exchange-correlation      = SLA PW NOGX NOGC ( 1  4  0  0 0 0)

     celldm(1)=   6.689630  celldm(2)=   0.000000  celldm(3)=   0.000000
     celldm(4)=   0.000000  celldm(5)=   0.000000  celldm(6)=   0.000000

     crystal axes: (cart. coord. in units of alat)
               a(1) = (   0.966063  -0.258191   0.007696 )  
               a(2) = (  -0.258191   0.966063  -0.007696 )  
               a(3) = (  -0.013060   0.013060   1.696830 )  

     reciprocal axes: (cart. coord. in units 2 pi/alat)
               b(1) = (  1.114714  0.297969  0.006286 )  
               b(2) = (  0.297969  1.114714 -0.006286 )  
               b(3) = ( -0.003704  0.003704  0.589277 )  


     PseudoPot. # 1 for Ti read from file:
     ./pseudo/Ti.upf
     MD5 check sum: 53bc0dda610e2d65968e83073ef0f8f1
     Pseudo is Norm-conserving + core correction, Zval = 12.0
     Generated using ONCVPSP code by D. R. Hamann
     Using radial grid of 1568 points,  6 beta functions with: 
                l(1) =   0
                l(2) =   0
                l(3) =   1
                l(4) =   1
                l(5) =   2
                l(6) =   2

     PseudoPot. # 2 for Se read from file:
     ./pseudo/Se.upf
     MD5 check sum: 134c4c62ae1a1890f780526fdd37a254
     Pseudo is Norm-conserving + core correction, Zval = 16.0
     Generated using ONCVPSP code by D. R. Hamann
     Using radial grid of 1198 points,  6 beta functions with: 
                l(1) =   0
                l(2) =   0
                l(3) =   1
                l(4) =   1
                l(5) =   2
                l(6) =   2

     atomic species   valence    mass     pseudopotential
        Ti            12.00    47.86700     Ti( 1.00)
        Se            16.00    78.97100     Se( 1.00)

      4 Sym. Ops., with inversion, found



   Cartesian axes

     site n.     atom                  positions (alat units)
         1           Ti  tau(   1) = (   0.0000000   0.0000000   0.0000000  )
         2           Se  tau(   2) = (   0.1473199   0.5605529   0.4220049  )
         3           Se  tau(   3) = (   0.5605529   0.1473199  -0.4220049  )

     number of k points=  3614  Marzari-Vanderbilt smearing, width (Ry)=  0.0100

     Number of k-points >= 100: set verbosity='high' to print them.

     Dense  grid:   168117 G-vectors     FFT dimensions: (  64,  64, 108)

     Smooth grid:    34781 G-vectors     FFT dimensions: (  36,  36,  64)

     Estimated max dynamical RAM per process >     286.06 MB

     Estimated total dynamical RAM >      11.17 GB

     Initial potential from superposition of free atoms

     starting charge   43.99853, renormalised to   44.00000
     Starting wfcs are   28 randomized atomic wfcs

     total cpu time spent up to now is       22.5 secs

     Self-consistent Calculation

     iteration #  1     ecut=    70.00 Ry     beta= 0.70
     Davidson diagonalization with overlap
     ethr =  1.00E-02,  avg # of iterations =  2.3

     Threshold (ethr) on eigenvalues was too large:
     Diagonalizing with lowered threshold

     Davidson diagonalization with overlap
     ethr =  2.66E-04,  avg # of iterations =  2.0

     total cpu time spent up to now is       90.4 secs

     total energy              =    -603.60661007 Ry
     Harris-Foulkes estimate   =    -603.68663329 Ry
     estimated scf accuracy    <       0.11612705 Ry

     iteration #  2     ecut=    70.00 Ry     beta= 0.70
     Davidson diagonalization with overlap
     ethr =  2.64E-04,  avg # of iterations =  4.2

     total cpu time spent up to now is      132.4 secs

     total energy              =    -603.46224104 Ry
     Harris-Foulkes estimate   =    -603.75984631 Ry
     estimated scf accuracy    <       1.24884415 Ry

     iteration #  3     ecut=    70.00 Ry     beta= 0.70
     Davidson diagonalization with overlap
     ethr =  2.64E-04,  avg # of iterations =  3.8

     total cpu time spent up to now is      170.1 secs

     total energy              =    -603.63822450 Ry
     Harris-Foulkes estimate   =    -603.68128149 Ry
     estimated scf accuracy    <       0.20029747 Ry

     iteration #  4     ecut=    70.00 Ry     beta= 0.70
     Davidson diagonalization with overlap
     ethr =  2.64E-04,  avg # of iterations =  2.3

     total cpu time spent up to now is      200.5 secs

     total energy              =    -603.65276709 Ry
     Harris-Foulkes estimate   =    -603.65530038 Ry
     estimated scf accuracy    <       0.01140932 Ry

     iteration #  5     ecut=    70.00 Ry     beta= 0.70
     Davidson diagonalization with overlap
     ethr =  2.59E-05,  avg # of iterations =  4.0

     total cpu time spent up to now is      234.4 secs

     total energy              =    -603.65462686 Ry
     Harris-Foulkes estimate   =    -603.65463814 Ry
     estimated scf accuracy    <       0.00004062 Ry

     iteration #  6     ecut=    70.00 Ry     beta= 0.70
     Davidson diagonalization with overlap
     ethr =  9.23E-08,  avg # of iterations =  3.6

     total cpu time spent up to now is      276.6 secs

     total energy              =    -603.65464693 Ry
     Harris-Foulkes estimate   =    -603.65464898 Ry
     estimated scf accuracy    <       0.00000786 Ry

     iteration #  7     ecut=    70.00 Ry     beta= 0.70
     Davidson diagonalization with overlap
     ethr =  1.79E-08,  avg # of iterations =  1.9

     total cpu time spent up to now is      304.5 secs

     total energy              =    -603.65464765 Ry
     Harris-Foulkes estimate   =    -603.65464769 Ry
     estimated scf accuracy    <       0.00000011 Ry

     iteration #  8     ecut=    70.00 Ry     beta= 0.70
     Davidson diagonalization with overlap
     ethr =  2.57E-10,  avg # of iterations =  3.6

     total cpu time spent up to now is      346.9 secs

     total energy              =    -603.65464768 Ry
     Harris-Foulkes estimate   =    -603.65464769 Ry
     estimated scf accuracy    <       0.00000002 Ry

     iteration #  9     ecut=    70.00 Ry     beta= 0.70
     Davidson diagonalization with overlap
     ethr =  4.14E-11,  avg # of iterations =  1.8

     total cpu time spent up to now is      375.3 secs

     total energy              =    -603.65464768 Ry
     Harris-Foulkes estimate   =    -603.65464768 Ry
     estimated scf accuracy    <          1.9E-09 Ry

     iteration # 10     ecut=    70.00 Ry     beta= 0.70
     Davidson diagonalization with overlap
     ethr =  4.40E-12,  avg # of iterations =  3.8

     total cpu time spent up to now is      409.7 secs

     End of self-consistent calculation

     Number of k-points >= 100: set verbosity='high' to print the bands.

     the Fermi energy is     9.7166 ev

!    total energy              =    -603.65464768 Ry
     Harris-Foulkes estimate   =    -603.65464768 Ry
     estimated scf accuracy    <          9.5E-11 Ry

     The total energy is the sum of the following terms:

     one-electron contribution =    -330.66854387 Ry
     hartree contribution      =     175.02966118 Ry
     xc contribution           =    -112.69573259 Ry
     ewald contribution        =    -335.31987621 Ry
     smearing contrib. (-TS)   =      -0.00015619 Ry

     convergence has been achieved in  10 iterations

     Writing output data file TiSe2.save/

     init_run     :     19.96s CPU     20.54s WALL (       1 calls)
     electrons    :    342.90s CPU    387.23s WALL (       1 calls)

     Called by init_run:
     wfcinit      :      9.96s CPU     10.02s WALL (       1 calls)
     potinit      :      3.43s CPU      3.84s WALL (       1 calls)
     hinit0       :      6.48s CPU      6.49s WALL (       1 calls)

     Called by electrons:
     c_bands      :    307.68s CPU    346.91s WALL (      11 calls)
     sum_band     :     33.28s CPU     37.16s WALL (      11 calls)
     v_of_rho     :      0.99s CPU      0.99s WALL (      11 calls)
     mix_rho      :      0.47s CPU      0.47s WALL (      11 calls)

     Called by c_bands:
     init_us_2    :      5.06s CPU      5.09s WALL (    2093 calls)
     cegterg      :    289.47s CPU    290.19s WALL (    1001 calls)

     Called by sum_band:

     Called by *egterg:
     h_psi        :    215.95s CPU    216.38s WALL (    4291 calls)
     g_psi        :      1.34s CPU      1.31s WALL (    3199 calls)
     cdiaghg      :      6.12s CPU      6.14s WALL (    4109 calls)

     Called by h_psi:
     h_psi:pot    :    214.74s CPU    214.84s WALL (    4291 calls)
     h_psi:calbec :     33.81s CPU     33.80s WALL (    4291 calls)
     vloc_psi     :    148.31s CPU    148.41s WALL (    4291 calls)
     add_vuspsi   :     32.60s CPU     32.61s WALL (    4291 calls)

     General routines
     calbec       :     33.80s CPU     33.79s WALL (    4291 calls)
     fft          :      0.83s CPU      0.83s WALL (      54 calls)
     ffts         :      0.04s CPU      0.04s WALL (      22 calls)
     fftw         :    160.21s CPU    160.36s WALL (  160374 calls)
     interpolate  :      0.23s CPU      0.23s WALL (      11 calls)

     Parallel routines

     PWSCF        :   6m 4.72s CPU   7m48.12s WALL


   This run was terminated on:  14: 9: 7   1May2020            

=------------------------------------------------------------------------------=
   JOB DONE.
=------------------------------------------------------------------------------=
