
     Program PWSCF v.5.1rc1 starts on 19May2020 at 15:42:49 

     This program is part of the open-source Quantum ESPRESSO suite
     for quantum simulation of materials; please cite
         "P. Giannozzi et al., J. Phys.:Condens. Matter 21 395502 (2009);
          URL http://www.quantum-espresso.org", 
     in publications or presentations arising from this work. More details at
     http://www.quantum-espresso.org/quote

     Parallel version (MPI), running on    40 processors
     K-points division:     npool     =      40
     Reading input from bulk_Si_pwscf.in

     Current dimensions of program PWSCF are:
     Max number of different atomic species (ntypx) = 10
     Max number of k-points (npk) =  40000
     Max angular momentum in pseudopotentials (lmaxx) =  3
               file Ti.pz-spn-rrkjus_psl.1.0.0.UPF: wavefunction(s)  3S 3D renormalized

     Subspace diagonalization in iterative solution of the eigenvalue problem:
     a serial algorithm will be used

     Found symmetry operation: I + (  0.5000  0.5000  0.0000)
     This is a supercell, fractional translations are disabled

     G-vector sticks info
     --------------------
     sticks:   dense  smooth     PW     G-vecs:    dense   smooth      PW
     Sum        9901    3463    955              1345863   278829   41241


     Title: 
     Bulk Silicon                                                               


     bravais-lattice index     =            0
     lattice parameter (alat)  =      13.3793  a.u.
     unit-cell volume          =    3522.1144 (a.u.)^3
     number of atoms/cell      =           24
     number of atomic types    =            2
     number of electrons       =       192.00
     number of Kohn-Sham states=          200
     kinetic-energy cutoff     =      70.0000  Ry
     charge density cutoff     =     800.0000  Ry
     convergence threshold     =      1.0E-10
     mixing beta               =       0.7000
     number of iterations used =            8  plain     mixing
     Exchange-correlation      = LDA ( 1  1  0  0 0)

     celldm(1)=  13.379260  celldm(2)=   0.000000  celldm(3)=   0.000000
     celldm(4)=   0.000000  celldm(5)=   0.000000  celldm(6)=   0.000000

     crystal axes: (cart. coord. in units of alat)
               a(1) = (   0.966063  -0.258191   0.007696 )  
               a(2) = (  -0.258191   0.966063  -0.007696 )  
               a(3) = (  -0.013060   0.013060   1.696830 )  

     reciprocal axes: (cart. coord. in units 2 pi/alat)
               b(1) = (  1.114714  0.297969  0.006286 )  
               b(2) = (  0.297969  1.114714 -0.006286 )  
               b(3) = ( -0.003704  0.003704  0.589277 )  


     PseudoPot. # 1 for Ti read from file:
     ../../pseudo/Ti.pz-spn-rrkjus_psl.1.0.0.UPF
     MD5 check sum: 2354b1dd637eae4f0b5af1ae1c6b5e32
     Pseudo is Ultrasoft + core correction, Zval = 12.0
     Generated using "atomic" code by A. Dal Corso  v.6.2.2
     Using radial grid of 1177 points,  6 beta functions with: 
                l(1) =   0
                l(2) =   0
                l(3) =   1
                l(4) =   1
                l(5) =   2
                l(6) =   2
     Q(r) pseudized with 0 coefficients 


     PseudoPot. # 2 for Se read from file:
     ../../pseudo/Se.pz-n-rrkjus_psl.0.2.UPF
     MD5 check sum: 25603cecb1b2b0d484ba6e75ea72c72e
     Pseudo is Ultrasoft + core correction, Zval =  6.0
     Generated using "atomic" code by A. Dal Corso  v.5.0.2 svn rev. 9415
     Using radial grid of 1211 points,  4 beta functions with: 
                l(1) =   0
                l(2) =   0
                l(3) =   1
                l(4) =   1
     Q(r) pseudized with 0 coefficients 


     atomic species   valence    mass     pseudopotential
        Ti            12.00    47.86700     Ti( 1.00)
        Se             6.00    78.97100     Se( 1.00)

      4 Sym. Ops., with inversion, found



   Cartesian axes

     site n.     atom                  positions (alat units)
         1           Ti  tau(   1) = (   0.0000000   0.0000000   0.0000000  )
         2           Ti  tau(   2) = (   0.3539364   0.3539364   0.0000000  )
         3           Ti  tau(   3) = (  -0.1290953   0.4830317  -0.0038480  )
         4           Ti  tau(   4) = (   0.4830317  -0.1290953   0.0038480  )
         5           Ti  tau(   5) = (  -0.0065299   0.0065299   0.8484152  )
         6           Ti  tau(   6) = (   0.3474065   0.3604663   0.8484152  )
         7           Ti  tau(   7) = (  -0.1356252   0.4895616   0.8445672  )
         8           Ti  tau(   8) = (   0.4765018  -0.1225654   0.8522632  )
         9           Se  tau(   9) = (   0.0736375   0.2802991   0.2117413  )
        10           Se  tau(  10) = (   0.2802991   0.0736375  -0.2117413  )
        11           Se  tau(  11) = (  -0.0554578   0.7633306   0.2078931  )
        12           Se  tau(  12) = (   0.1512037   0.5566691  -0.2155894  )
        13           Se  tau(  13) = (   0.7633306  -0.0554578  -0.2078931  )
        14           Se  tau(  14) = (   0.5566691   0.1512037   0.2155894  )
        15           Se  tau(  15) = (   0.4275737   0.6342353   0.2117413  )
        16           Se  tau(  16) = (   0.6342353   0.4275737  -0.2117413  )
        17           Se  tau(  17) = (   0.0671074   0.2868289   1.0601565  )
        18           Se  tau(  18) = (   0.2868289   0.0671074  -1.0601565  )
        19           Se  tau(  19) = (  -0.0619877   0.7698605   1.0563083  )
        20           Se  tau(  20) = (   0.1577335   0.5501393  -1.0640046  )
        21           Se  tau(  21) = (   0.7698605  -0.0619877  -1.0563083  )
        22           Se  tau(  22) = (   0.5501393   0.1577335   1.0640046  )
        23           Se  tau(  23) = (   0.4210439   0.6407654   1.0601565  )
        24           Se  tau(  24) = (   0.6407654   0.4210439  -1.0601565  )

     number of k points=   476  Marzari-Vanderbilt smearing, width (Ry)=  0.0100

     Number of k-points >= 100: set verbosity='high' to print them.

     Dense  grid:  1345863 G-vectors     FFT dimensions: ( 125, 125, 216)

     Smooth grid:   278829 G-vectors     FFT dimensions: (  72,  72, 125)

     Largest allocated arrays     est. size (Mb)     dimensions
        Kohn-Sham Wavefunctions       106.48 Mb     (   34891,  200)
        NL pseudopotentials           144.81 Mb     (   34891,  272)
        Each V/rho on FFT grid         51.50 Mb     ( 3375000)
        Each G-vector array            10.27 Mb     ( 1345863)
        G-vector shells                 2.60 Mb     (  340667)
     Largest temporary arrays     est. size (Mb)     dimensions
        Auxiliary wavefunctions       425.92 Mb     (   34891,  800)
        Each subspace H/S matrix        9.77 Mb     (     800,  800)
        Each <psi_i|beta_j> matrix      0.83 Mb     (     272,  200)
        Arrays for rho mixing         411.99 Mb     ( 3375000,    8)

     Initial potential from superposition of free atoms

     starting charge  191.98900, renormalised to  192.00000
     Starting wfc are  144 randomized atomic wfcs +   56 random wfc

     total cpu time spent up to now is      579.1 secs

     Self-consistent Calculation

     iteration #  1     ecut=    70.00 Ry     beta=0.70
     Davidson diagonalization with overlap
     ethr =  1.00E-02,  avg # of iterations =  5.2

     Threshold (ethr) on eigenvalues was too large:
     Diagonalizing with lowered threshold

     Davidson diagonalization with overlap
     ethr =  5.56E-04,  avg # of iterations =  1.2

     total cpu time spent up to now is     3854.2 secs

     total energy              =   -1403.17799499 Ry
     Harris-Foulkes estimate   =   -1403.93852700 Ry
     estimated scf accuracy    <       1.06724714 Ry

     iteration #  2     ecut=    70.00 Ry     beta=0.70
     Davidson diagonalization with overlap
     ethr =  5.56E-04,  avg # of iterations =  2.1

     total cpu time spent up to now is     5467.3 secs

     total energy              =   -1401.65355843 Ry
     Harris-Foulkes estimate   =   -1404.74829865 Ry
     estimated scf accuracy    <      13.89408011 Ry

     iteration #  3     ecut=    70.00 Ry     beta=0.70
     Davidson diagonalization with overlap
     ethr =  5.56E-04,  avg # of iterations =  2.1

     total cpu time spent up to now is     6906.4 secs

     total energy              =   -1403.50403643 Ry
     Harris-Foulkes estimate   =   -1403.93142930 Ry
     estimated scf accuracy    <       2.01920118 Ry

     iteration #  4     ecut=    70.00 Ry     beta=0.70
     Davidson diagonalization with overlap
     ethr =  5.56E-04,  avg # of iterations =  1.4

     total cpu time spent up to now is     8118.3 secs

     total energy              =   -1403.65482526 Ry
     Harris-Foulkes estimate   =   -1403.67399023 Ry
     estimated scf accuracy    <       0.09174541 Ry

     iteration #  5     ecut=    70.00 Ry     beta=0.70
     Davidson diagonalization with overlap
     ethr =  4.78E-05,  avg # of iterations =  1.9

     total cpu time spent up to now is     9350.0 secs

     total energy              =   -1403.66147038 Ry
     Harris-Foulkes estimate   =   -1403.66207346 Ry
     estimated scf accuracy    <       0.00272409 Ry

     iteration #  6     ecut=    70.00 Ry     beta=0.70
     Davidson diagonalization with overlap
     ethr =  1.42E-06,  avg # of iterations =  6.2

     total cpu time spent up to now is    10776.2 secs

     total energy              =   -1403.66177806 Ry
     Harris-Foulkes estimate   =   -1403.66181620 Ry
     estimated scf accuracy    <       0.00009984 Ry

     iteration #  7     ecut=    70.00 Ry     beta=0.70
     Davidson diagonalization with overlap
     ethr =  5.20E-08,  avg # of iterations =  2.0

     total cpu time spent up to now is    12047.1 secs

     total energy              =   -1403.66175314 Ry
     Harris-Foulkes estimate   =   -1403.66187717 Ry
     estimated scf accuracy    <       0.00133450 Ry

     iteration #  8     ecut=    70.00 Ry     beta=0.70
     Davidson diagonalization with overlap
     ethr =  5.20E-08,  avg # of iterations =  1.0

     total cpu time spent up to now is    13251.9 secs

     total energy              =   -1403.66181221 Ry
     Harris-Foulkes estimate   =   -1403.66181498 Ry
     estimated scf accuracy    <       0.00001425 Ry

     iteration #  9     ecut=    70.00 Ry     beta=0.70
     Davidson diagonalization with overlap
     ethr =  7.42E-09,  avg # of iterations =  1.0

     total cpu time spent up to now is    14453.4 secs

     total energy              =   -1403.66181356 Ry
     Harris-Foulkes estimate   =   -1403.66181396 Ry
     estimated scf accuracy    <       0.00000201 Ry

     iteration # 10     ecut=    70.00 Ry     beta=0.70
     Davidson diagonalization with overlap
     ethr =  1.04E-09,  avg # of iterations =  1.0

     total cpu time spent up to now is    15656.6 secs

     total energy              =   -1403.66181375 Ry
     Harris-Foulkes estimate   =   -1403.66181378 Ry
     estimated scf accuracy    <       0.00000010 Ry

     iteration # 11     ecut=    70.00 Ry     beta=0.70
     Davidson diagonalization with overlap
     ethr =  5.17E-11,  avg # of iterations =  1.0

     total cpu time spent up to now is    16855.3 secs

     total energy              =   -1403.66181374 Ry
     Harris-Foulkes estimate   =   -1403.66181378 Ry
     estimated scf accuracy    <       0.00000016 Ry

     iteration # 12     ecut=    70.00 Ry     beta=0.70
     Davidson diagonalization with overlap
     ethr =  5.17E-11,  avg # of iterations =  1.0

     total cpu time spent up to now is    18054.6 secs

     total energy              =   -1403.66181376 Ry
     Harris-Foulkes estimate   =   -1403.66181377 Ry
     estimated scf accuracy    <       0.00000004 Ry

     iteration # 13     ecut=    70.00 Ry     beta=0.70
     Davidson diagonalization with overlap
     ethr =  2.08E-11,  avg # of iterations =  1.0

     total cpu time spent up to now is    19258.2 secs

     total energy              =   -1403.66181376 Ry
     Harris-Foulkes estimate   =   -1403.66181376 Ry
     estimated scf accuracy    <          3.0E-10 Ry

     iteration # 14     ecut=    70.00 Ry     beta=0.70
     Davidson diagonalization with overlap
     ethr =  1.54E-13,  avg # of iterations =  2.0

     total cpu time spent up to now is    20581.8 secs

     End of self-consistent calculation

     Number of k-points >= 100: set verbosity='high' to print the bands.

     the Fermi energy is     7.5542 ev

!    total energy              =   -1403.66181376 Ry
     Harris-Foulkes estimate   =   -1403.66181376 Ry
     estimated scf accuracy    <          7.9E-11 Ry

     The total energy is the sum of the following terms:

     one-electron contribution =    -643.73230968 Ry
     hartree contribution      =     384.41776061 Ry
     xc contribution           =    -363.45348503 Ry
     ewald contribution        =    -780.89249073 Ry
     smearing contrib. (-TS)   =      -0.00128894 Ry

     convergence has been achieved in  14 iterations

     Writing output data file bulk_Si_exmpl2_BandUP.save

     init_run     :    550.60s CPU    562.51s WALL (       1 calls)
     electrons    :  19558.59s CPU  20003.91s WALL (       1 calls)

     Called by init_run:
     wfcinit      :    450.47s CPU    461.73s WALL (       1 calls)
     potinit      :     16.59s CPU     16.95s WALL (       1 calls)

     Called by electrons:
     c_bands      :  16662.99s CPU  17018.35s WALL (      15 calls)
     sum_band     :   2229.57s CPU   2299.25s WALL (      15 calls)
     v_of_rho     :      8.38s CPU      8.49s WALL (      15 calls)
     newd         :    688.44s CPU    689.94s WALL (      15 calls)
     mix_rho      :      7.22s CPU      7.24s WALL (      15 calls)

     Called by c_bands:
     init_us_2    :     26.83s CPU     27.34s WALL (     372 calls)
     cegterg      :  16509.50s CPU  16570.36s WALL (     180 calls)

     Called by *egterg:
     h_psi        :   7088.52s CPU   7098.04s WALL (     554 calls)
     s_psi        :   1983.75s CPU   1983.11s WALL (     554 calls)
     g_psi        :     11.97s CPU     11.96s WALL (     362 calls)
     cdiaghg      :    166.12s CPU    166.08s WALL (     530 calls)

     Called by h_psi:
     add_vuspsi   :   1987.12s CPU   1986.42s WALL (     554 calls)

     General routines
     calbec       :   2862.98s CPU   2862.22s WALL (     734 calls)
     fft          :     20.64s CPU     21.19s WALL (     135 calls)
     ffts         :      0.63s CPU      0.63s WALL (      30 calls)
     fftw         :   2950.99s CPU   2952.58s WALL (  197404 calls)
     interpolate  :      5.88s CPU      6.16s WALL (      30 calls)

     Parallel routines
     fft_scatter  :    334.49s CPU    333.78s WALL (  197569 calls)

     PWSCF        :     5h37m CPU        5h59m WALL


   This run was terminated on:  21:41:54  19May2020            

=------------------------------------------------------------------------------=
   JOB DONE.
=------------------------------------------------------------------------------=
