
     Program PWSCF v.6.4 starts on 17Feb2020 at  0:49:51 

     This program is part of the open-source Quantum ESPRESSO suite
     for quantum simulation of materials; please cite
         "P. Giannozzi et al., J. Phys.:Condens. Matter 21 395502 (2009);
         "P. Giannozzi et al., J. Phys.:Condens. Matter 29 465901 (2017);
          URL http://www.quantum-espresso.org", 
     in publications or presentations arising from this work. More details at
     http://www.quantum-espresso.org/quote

     Parallel version (MPI), running on    40 processors

     MPI processes distributed on     5 nodes
     K-points division:     npool     =      40
     Waiting for input...
     Reading input from standard input

     Current dimensions of program PWSCF are:
     Max number of different atomic species (ntypx) = 10
     Max number of k-points (npk) =  40000
     Max angular momentum in pseudopotentials (lmaxx) =  3
               file Li0.11He_nc3b.UPF: wavefunction(s)  1S 2S renormalized

     Subspace diagonalization in iterative solution of the eigenvalue problem:
     a serial algorithm will be used


     G-vector sticks info
     --------------------
     sticks:   dense  smooth     PW     G-vecs:    dense   smooth      PW
     Sum        2479     859    265               169783    35089    6105



     bravais-lattice index     =            0
     lattice parameter (alat)  =       6.7009  a.u.
     unit-cell volume          =     444.1735 (a.u.)^3
     number of atoms/cell      =            4
     number of atomic types    =            3
     number of electrons       =        46.11
     number of Kohn-Sham states=           28
     kinetic-energy cutoff     =      70.0000  Ry
     charge density cutoff     =     800.0000  Ry
     convergence threshold     =      1.0E-10
     mixing beta               =       0.7000
     number of iterations used =            8  plain     mixing
     Exchange-correlation      = SLA-PW ( 1  4  0  0 0 0)
     nstep                     =           50


     celldm(1)=   6.700943  celldm(2)=   0.000000  celldm(3)=   0.000000
     celldm(4)=   0.000000  celldm(5)=   0.000000  celldm(6)=   0.000000

     crystal axes: (cart. coord. in units of alat)
               a(1) = (   0.966067  -0.258192   0.007173 )  
               a(2) = (  -0.258192   0.966067  -0.007173 )  
               a(3) = (  -0.010331   0.010331   1.703272 )  

     reciprocal axes: (cart. coord. in units 2 pi/alat)
               b(1) = (  1.114720  0.297957  0.004954 )  
               b(2) = (  0.297957  1.114720 -0.004954 )  
               b(3) = ( -0.003440  0.003440  0.587064 )  


     PseudoPot. # 1 for Ti read from file:
     ./pseudo/Ti.upf
     MD5 check sum: 53bc0dda610e2d65968e83073ef0f8f1
     Pseudo is Norm-conserving + core correction, Zval = 12.0
     Generated using ONCVPSP code by D. R. Hamann
     Using radial grid of 1568 points,  6 beta functions with: 
                l(1) =   0
                l(2) =   0
                l(3) =   1
                l(4) =   1
                l(5) =   2
                l(6) =   2

     PseudoPot. # 2 for Se read from file:
     ./pseudo/Se.upf
     MD5 check sum: 134c4c62ae1a1890f780526fdd37a254
     Pseudo is Norm-conserving + core correction, Zval = 16.0
     Generated using ONCVPSP code by D. R. Hamann
     Using radial grid of 1198 points,  6 beta functions with: 
                l(1) =   0
                l(2) =   0
                l(3) =   1
                l(4) =   1
                l(5) =   2
                l(6) =   2

     PseudoPot. # 3 for Xx read from file:
     ./pseudo/Li0.11He_nc3b.UPF
     MD5 check sum: 7f3dc0183182dbadfac33f5de0b0cba6
     Pseudo is Norm-conserving, Zval =  2.1
     Generated using virtual.x code
     Using radial grid of 1017 points,  3 beta functions with: 
                l(1) =   0
                l(2) =   0
                l(3) =   0

     atomic species   valence    mass     pseudopotential
        Ti            12.00    47.86700     Ti( 1.00)
        Se            16.00    78.97100     Se( 1.00)
        Li             2.11     6.94000     Xx( 1.00)

      4 Sym. Ops., with inversion, found



   Cartesian axes

     site n.     atom                  positions (alat units)
         1           Ti  tau(   1) = (   0.0000000   0.0000000   0.0000000  )
         2           Se  tau(   2) = (   0.1472600   0.5606155   0.4319945  )
         3           Se  tau(   3) = (   0.5606155   0.1472600  -0.4319945  )
         4           Li  tau(   4) = (  -0.0051653   0.0051653   0.8516358  )

     number of k points=  1098  Marzari-Vanderbilt smearing, width (Ry)=  0.0100

     Number of k-points >= 100: set verbosity='high' to print them.

     Dense  grid:   169783 G-vectors     FFT dimensions: (  64,  64, 108)

     Smooth grid:    35089 G-vectors     FFT dimensions: (  36,  36,  64)

     Estimated max dynamical RAM per process >     191.43 MB

     Estimated total dynamical RAM >       7.48 GB

     Initial potential from superposition of free atoms

     starting charge   46.10801, renormalised to   46.11000
     Starting wfcs are   30 randomized atomic wfcs

     total cpu time spent up to now is       17.3 secs

     Self-consistent Calculation

     iteration #  1     ecut=    70.00 Ry     beta= 0.70
     Davidson diagonalization with overlap
     ethr =  1.00E-02,  avg # of iterations =  3.4

     Threshold (ethr) on eigenvalues was too large:
     Diagonalizing with lowered threshold

     Davidson diagonalization with overlap
     ethr =  2.85E-04,  avg # of iterations =  1.6

     total cpu time spent up to now is       47.7 secs

     total energy              =    -609.97385078 Ry
     Harris-Foulkes estimate   =    -610.06502642 Ry
     estimated scf accuracy    <       0.13118998 Ry

     iteration #  2     ecut=    70.00 Ry     beta= 0.70
     Davidson diagonalization with overlap
     ethr =  2.85E-04,  avg # of iterations =  3.0

     total cpu time spent up to now is       63.0 secs

     total energy              =    -609.78652318 Ry
     Harris-Foulkes estimate   =    -610.16021595 Ry
     estimated scf accuracy    <       1.67341566 Ry

     iteration #  3     ecut=    70.00 Ry     beta= 0.70
     Davidson diagonalization with overlap
     ethr =  2.85E-04,  avg # of iterations =  2.3

     total cpu time spent up to now is       77.3 secs

     total energy              =    -610.01268730 Ry
     Harris-Foulkes estimate   =    -610.05941534 Ry
     estimated scf accuracy    <       0.22056967 Ry

     iteration #  4     ecut=    70.00 Ry     beta= 0.70
     Davidson diagonalization with overlap
     ethr =  2.85E-04,  avg # of iterations =  2.0

     total cpu time spent up to now is       89.6 secs

     total energy              =    -610.02873919 Ry
     Harris-Foulkes estimate   =    -610.03128627 Ry
     estimated scf accuracy    <       0.01242822 Ry

     iteration #  5     ecut=    70.00 Ry     beta= 0.70
     Davidson diagonalization with overlap
     ethr =  2.70E-05,  avg # of iterations =  2.2

     total cpu time spent up to now is      101.2 secs

     total energy              =    -610.02946944 Ry
     Harris-Foulkes estimate   =    -610.02965697 Ry
     estimated scf accuracy    <       0.00084080 Ry

     iteration #  6     ecut=    70.00 Ry     beta= 0.70
     Davidson diagonalization with overlap
     ethr =  1.82E-06,  avg # of iterations =  2.7

     total cpu time spent up to now is      114.5 secs

     total energy              =    -610.02958343 Ry
     Harris-Foulkes estimate   =    -610.02958506 Ry
     estimated scf accuracy    <       0.00000380 Ry

     iteration #  7     ecut=    70.00 Ry     beta= 0.70
     Davidson diagonalization with overlap
     ethr =  8.23E-09,  avg # of iterations =  3.4

     total cpu time spent up to now is      129.8 secs

     total energy              =    -610.02958530 Ry
     Harris-Foulkes estimate   =    -610.02958545 Ry
     estimated scf accuracy    <       0.00000086 Ry

     iteration #  8     ecut=    70.00 Ry     beta= 0.70
     Davidson diagonalization with overlap
     ethr =  1.87E-09,  avg # of iterations =  1.0

     total cpu time spent up to now is      140.8 secs

     total energy              =    -610.02958532 Ry
     Harris-Foulkes estimate   =    -610.02958535 Ry
     estimated scf accuracy    <       0.00000014 Ry

     iteration #  9     ecut=    70.00 Ry     beta= 0.70
     Davidson diagonalization with overlap
     ethr =  3.07E-10,  avg # of iterations =  1.4

     total cpu time spent up to now is      152.0 secs

     total energy              =    -610.02958533 Ry
     Harris-Foulkes estimate   =    -610.02958533 Ry
     estimated scf accuracy    <          4.1E-10 Ry

     iteration # 10     ecut=    70.00 Ry     beta= 0.70
     Davidson diagonalization with overlap
     ethr =  8.93E-13,  avg # of iterations =  4.0

     total cpu time spent up to now is      171.3 secs

     total energy              =    -610.02958533 Ry
     Harris-Foulkes estimate   =    -610.02958533 Ry
     estimated scf accuracy    <          8.3E-10 Ry

     iteration # 11     ecut=    70.00 Ry     beta= 0.70
     Davidson diagonalization with overlap
     ethr =  8.93E-13,  avg # of iterations =  2.0

     total cpu time spent up to now is      183.0 secs

     End of self-consistent calculation

     Number of k-points >= 100: set verbosity='high' to print the bands.

     the Fermi energy is    10.1493 ev

!    total energy              =    -610.02958533 Ry
     Harris-Foulkes estimate   =    -610.02958533 Ry
     estimated scf accuracy    <          2.7E-12 Ry

     The total energy is the sum of the following terms:

     one-electron contribution =    -307.62375942 Ry
     hartree contribution      =     165.45499492 Ry
     xc contribution           =    -114.89197752 Ry
     ewald contribution        =    -352.96869230 Ry
     smearing contrib. (-TS)   =      -0.00015100 Ry

     convergence has been achieved in  11 iterations

     Forces acting on atoms (cartesian axes, Ry/au):

     atom    1 type  1   force =    -0.00000000   -0.00000000    0.00000000
     atom    2 type  2   force =     0.00042788   -0.00042788   -0.04250607
     atom    3 type  2   force =    -0.00042788    0.00042788    0.04250607
     atom    4 type  3   force =     0.00000000    0.00000000    0.00000000

     Total force =     0.060119     Total SCF correction =     0.000016


     Computing stress (Cartesian axis) and pressure

          total   stress  (Ry/bohr**3)                   (kbar)     P=  -82.91
  -0.00065387  -0.00000488  -0.00000051        -96.19     -0.72     -0.08
  -0.00000488  -0.00065387   0.00000051         -0.72    -96.19      0.08
  -0.00000051   0.00000051  -0.00038314         -0.08      0.08    -56.36


     BFGS Geometry Optimization

     number of scf cycles    =   1
     number of bfgs steps    =   0

     energy   new            =    -610.0295853318 Ry

     new trust radius        =       0.0425103759 bohr
     new conv_thr            =            1.0E-10 Ry


ATOMIC_POSITIONS (crystal)
Ti      -0.000000000  -0.000000000  -0.000000000
Se       0.333354062   0.666645937   0.251305642
Se       0.666645937   0.333354062  -0.251305642
Li       0.000000000  -0.000000000   0.500000000



     Writing output data file TiSe2.save/
     NEW-OLD atomic charge density approx. for the potential

     total cpu time spent up to now is      225.8 secs

     Self-consistent Calculation

     iteration #  1     ecut=    70.00 Ry     beta= 0.70
     Davidson diagonalization with overlap
     ethr =  1.00E-06,  avg # of iterations =  5.0

     total cpu time spent up to now is      255.7 secs

     total energy              =    -610.03253500 Ry
     Harris-Foulkes estimate   =    -610.03281560 Ry
     estimated scf accuracy    <       0.00034549 Ry

     iteration #  2     ecut=    70.00 Ry     beta= 0.70
     Davidson diagonalization with overlap
     ethr =  7.49E-07,  avg # of iterations =  3.2

     total cpu time spent up to now is      271.3 secs

     total energy              =    -610.03200943 Ry
     Harris-Foulkes estimate   =    -610.03362471 Ry
     estimated scf accuracy    <       0.00767153 Ry

     iteration #  3     ecut=    70.00 Ry     beta= 0.70
     Davidson diagonalization with overlap
     ethr =  7.49E-07,  avg # of iterations =  2.8

     total cpu time spent up to now is      285.9 secs

     total energy              =    -610.03276809 Ry
     Harris-Foulkes estimate   =    -610.03276988 Ry
     estimated scf accuracy    <       0.00000464 Ry

     iteration #  4     ecut=    70.00 Ry     beta= 0.70
     Davidson diagonalization with overlap
     ethr =  1.01E-08,  avg # of iterations =  3.2

     total cpu time spent up to now is      300.9 secs

     total energy              =    -610.03276983 Ry
     Harris-Foulkes estimate   =    -610.03277041 Ry
     estimated scf accuracy    <       0.00000110 Ry

     iteration #  5     ecut=    70.00 Ry     beta= 0.70
     Davidson diagonalization with overlap
     ethr =  2.38E-09,  avg # of iterations =  2.0

     total cpu time spent up to now is      314.6 secs

     total energy              =    -610.03277008 Ry
     Harris-Foulkes estimate   =    -610.03277009 Ry
     estimated scf accuracy    <       0.00000003 Ry

     iteration #  6     ecut=    70.00 Ry     beta= 0.70
     Davidson diagonalization with overlap
     ethr =  5.94E-11,  avg # of iterations =  2.8

     total cpu time spent up to now is      328.7 secs

     total energy              =    -610.03277009 Ry
     Harris-Foulkes estimate   =    -610.03277009 Ry
     estimated scf accuracy    <          5.3E-10 Ry

     iteration #  7     ecut=    70.00 Ry     beta= 0.70
     Davidson diagonalization with overlap
     ethr =  1.14E-12,  avg # of iterations =  2.6

     total cpu time spent up to now is      343.1 secs

     End of self-consistent calculation

     Number of k-points >= 100: set verbosity='high' to print the bands.

     the Fermi energy is    10.1512 ev

!    total energy              =    -610.03277009 Ry
     Harris-Foulkes estimate   =    -610.03277009 Ry
     estimated scf accuracy    <          2.4E-11 Ry

     The total energy is the sum of the following terms:

     one-electron contribution =    -310.72425843 Ry
     hartree contribution      =     166.99635514 Ry
     xc contribution           =    -114.91042805 Ry
     ewald contribution        =    -351.39430452 Ry
     smearing contrib. (-TS)   =      -0.00013422 Ry

     convergence has been achieved in   7 iterations

     Forces acting on atoms (cartesian axes, Ry/au):

     atom    1 type  1   force =     0.00000000    0.00000000    0.00000000
     atom    2 type  2   force =     0.00036048   -0.00036048   -0.03236005
     atom    3 type  2   force =    -0.00036048    0.00036048    0.03236005
     atom    4 type  3   force =     0.00000000    0.00000000    0.00000000

     Total force =     0.045770     Total SCF correction =     0.000017


     Computing stress (Cartesian axis) and pressure

          total   stress  (Ry/bohr**3)                   (kbar)     P=  -74.01
  -0.00061603  -0.00000489  -0.00000087        -90.62     -0.72     -0.13
  -0.00000489  -0.00061603   0.00000087         -0.72    -90.62      0.13
  -0.00000087   0.00000087  -0.00027734         -0.13      0.13    -40.80


     number of scf cycles    =   2
     number of bfgs steps    =   1

     energy   old            =    -610.0295853318 Ry
     energy   new            =    -610.0327700892 Ry

     CASE: energy  _new < energy  _old

     new trust radius        =       0.0467614135 bohr
     new conv_thr            =            1.0E-10 Ry


ATOMIC_POSITIONS (crystal)
Ti      -0.000000000  -0.000000000  -0.000000000
Se       0.333382981   0.666617018   0.247208889
Se       0.666617018   0.333382981  -0.247208889
Li       0.000000000  -0.000000000   0.500000000



     Writing output data file TiSe2.save/
     NEW-OLD atomic charge density approx. for the potential

     total cpu time spent up to now is      385.8 secs

     Self-consistent Calculation

     iteration #  1     ecut=    70.00 Ry     beta= 0.70
     Davidson diagonalization with overlap
     ethr =  1.00E-06,  avg # of iterations =  5.0

     total cpu time spent up to now is      416.0 secs

     total energy              =    -610.03496663 Ry
     Harris-Foulkes estimate   =    -610.03532316 Ry
     estimated scf accuracy    <       0.00043766 Ry

     iteration #  2     ecut=    70.00 Ry     beta= 0.70
     Davidson diagonalization with overlap
     ethr =  9.49E-07,  avg # of iterations =  3.2

     total cpu time spent up to now is      431.8 secs

     total energy              =    -610.03434180 Ry
     Harris-Foulkes estimate   =    -610.03631525 Ry
     estimated scf accuracy    <       0.00912972 Ry

     iteration #  3     ecut=    70.00 Ry     beta= 0.70
     Davidson diagonalization with overlap
     ethr =  9.49E-07,  avg # of iterations =  2.8

     total cpu time spent up to now is      446.4 secs

     total energy              =    -610.03526288 Ry
     Harris-Foulkes estimate   =    -610.03526472 Ry
     estimated scf accuracy    <       0.00000456 Ry

     iteration #  4     ecut=    70.00 Ry     beta= 0.70
     Davidson diagonalization with overlap
     ethr =  9.89E-09,  avg # of iterations =  3.2

     total cpu time spent up to now is      461.7 secs

     total energy              =    -610.03526489 Ry
     Harris-Foulkes estimate   =    -610.03526555 Ry
     estimated scf accuracy    <       0.00000126 Ry

     iteration #  5     ecut=    70.00 Ry     beta= 0.70
     Davidson diagonalization with overlap
     ethr =  2.73E-09,  avg # of iterations =  2.0

     total cpu time spent up to now is      475.6 secs

     total energy              =    -610.03526518 Ry
     Harris-Foulkes estimate   =    -610.03526519 Ry
     estimated scf accuracy    <       0.00000003 Ry

     iteration #  6     ecut=    70.00 Ry     beta= 0.70
     Davidson diagonalization with overlap
     ethr =  7.36E-11,  avg # of iterations =  2.8

     total cpu time spent up to now is      489.5 secs

     total energy              =    -610.03526519 Ry
     Harris-Foulkes estimate   =    -610.03526519 Ry
     estimated scf accuracy    <          5.8E-10 Ry

     iteration #  7     ecut=    70.00 Ry     beta= 0.70
     Davidson diagonalization with overlap
     ethr =  1.27E-12,  avg # of iterations =  2.6

     total cpu time spent up to now is      504.8 secs

     End of self-consistent calculation

     Number of k-points >= 100: set verbosity='high' to print the bands.

     the Fermi energy is    10.1567 ev

!    total energy              =    -610.03526519 Ry
     Harris-Foulkes estimate   =    -610.03526519 Ry
     estimated scf accuracy    <          3.1E-11 Ry

     The total energy is the sum of the following terms:

     one-electron contribution =    -314.39444913 Ry
     hartree contribution      =     168.82184405 Ry
     xc contribution           =    -114.93171393 Ry
     ewald contribution        =    -349.53083164 Ry
     smearing contrib. (-TS)   =      -0.00011454 Ry

     convergence has been achieved in   7 iterations

     Forces acting on atoms (cartesian axes, Ry/au):

     atom    1 type  1   force =     0.00000000    0.00000000    0.00000000
     atom    2 type  2   force =     0.00027725   -0.00027725   -0.02092387
     atom    3 type  2   force =    -0.00027725    0.00027725    0.02092387
     atom    4 type  3   force =     0.00000000    0.00000000    0.00000000

     Total force =     0.029596     Total SCF correction =     0.000018


     Computing stress (Cartesian axis) and pressure

          total   stress  (Ry/bohr**3)                   (kbar)     P=  -63.60
  -0.00056891  -0.00000485  -0.00000133        -83.69     -0.71     -0.19
  -0.00000485  -0.00056891   0.00000133         -0.71    -83.69      0.19
  -0.00000133   0.00000133  -0.00015913         -0.19      0.19    -23.41


     number of scf cycles    =   3
     number of bfgs steps    =   2

     energy   old            =    -610.0327700892 Ry
     energy   new            =    -610.0352651859 Ry

     CASE: energy  _new < energy  _old

     new trust radius        =       0.0701421202 bohr
     new conv_thr            =            1.0E-10 Ry


ATOMIC_POSITIONS (crystal)
Ti      -0.000000000  -0.000000000  -0.000000000
Se       0.333438846   0.666561153   0.241063868
Se       0.666561153   0.333438846  -0.241063868
Li       0.000000000  -0.000000000   0.500000000



     Writing output data file TiSe2.save/
     NEW-OLD atomic charge density approx. for the potential

     total cpu time spent up to now is      547.5 secs

     Self-consistent Calculation

     iteration #  1     ecut=    70.00 Ry     beta= 0.70
     Davidson diagonalization with overlap
     ethr =  1.00E-06,  avg # of iterations =  5.3

     total cpu time spent up to now is      579.3 secs

     total energy              =    -610.03625036 Ry
     Harris-Foulkes estimate   =    -610.03710126 Ry
     estimated scf accuracy    <       0.00104107 Ry

     iteration #  2     ecut=    70.00 Ry     beta= 0.70
     Davidson diagonalization with overlap
     ethr =  2.26E-06,  avg # of iterations =  3.2

     total cpu time spent up to now is      595.8 secs

     total energy              =    -610.03492145 Ry
     Harris-Foulkes estimate   =    -610.03932873 Ry
     estimated scf accuracy    <       0.01953050 Ry

     iteration #  3     ecut=    70.00 Ry     beta= 0.70
     Davidson diagonalization with overlap
     ethr =  2.26E-06,  avg # of iterations =  3.2

     total cpu time spent up to now is      611.0 secs

     total energy              =    -610.03695720 Ry
     Harris-Foulkes estimate   =    -610.03696029 Ry
     estimated scf accuracy    <       0.00000701 Ry

     iteration #  4     ecut=    70.00 Ry     beta= 0.70
     Davidson diagonalization with overlap
     ethr =  1.52E-08,  avg # of iterations =  3.2

     total cpu time spent up to now is      626.4 secs

     total energy              =    -610.03696087 Ry
     Harris-Foulkes estimate   =    -610.03696222 Ry
     estimated scf accuracy    <       0.00000254 Ry

     iteration #  5     ecut=    70.00 Ry     beta= 0.70
     Davidson diagonalization with overlap
     ethr =  5.51E-09,  avg # of iterations =  2.1

     total cpu time spent up to now is      640.3 secs

     total energy              =    -610.03696145 Ry
     Harris-Foulkes estimate   =    -610.03696147 Ry
     estimated scf accuracy    <       0.00000008 Ry

     iteration #  6     ecut=    70.00 Ry     beta= 0.70
     Davidson diagonalization with overlap
     ethr =  1.66E-10,  avg # of iterations =  2.7

     total cpu time spent up to now is      654.1 secs

     total energy              =    -610.03696146 Ry
     Harris-Foulkes estimate   =    -610.03696146 Ry
     estimated scf accuracy    <          1.2E-09 Ry

     iteration #  7     ecut=    70.00 Ry     beta= 0.70
     Davidson diagonalization with overlap
     ethr =  2.54E-12,  avg # of iterations =  2.7

     total cpu time spent up to now is      669.6 secs

     End of self-consistent calculation

     Number of k-points >= 100: set verbosity='high' to print the bands.

     the Fermi energy is    10.1733 ev

!    total energy              =    -610.03696146 Ry
     Harris-Foulkes estimate   =    -610.03696146 Ry
     estimated scf accuracy    <          7.2E-11 Ry

     The total energy is the sum of the following terms:

     one-electron contribution =    -320.40476455 Ry
     hartree contribution      =     171.81272241 Ry
     xc contribution           =    -114.96551745 Ry
     ewald contribution        =    -346.47929702 Ry
     smearing contrib. (-TS)   =      -0.00010486 Ry

     convergence has been achieved in   7 iterations

     Forces acting on atoms (cartesian axes, Ry/au):

     atom    1 type  1   force =     0.00000000    0.00000000    0.00000000
     atom    2 type  2   force =     0.00012782   -0.00012782   -0.00311967
     atom    3 type  2   force =    -0.00012782    0.00012782    0.00311967
     atom    4 type  3   force =     0.00000000    0.00000000    0.00000000

     Total force =     0.004419     Total SCF correction =     0.000039


     Computing stress (Cartesian axis) and pressure

          total   stress  (Ry/bohr**3)                   (kbar)     P=  -46.77
  -0.00048750  -0.00000458  -0.00000219        -71.71     -0.67     -0.32
  -0.00000458  -0.00048750   0.00000219         -0.67    -71.71      0.32
  -0.00000219   0.00000219   0.00002126         -0.32      0.32      3.13


     number of scf cycles    =   4
     number of bfgs steps    =   3

     energy   old            =    -610.0352651859 Ry
     energy   new            =    -610.0369614635 Ry

     CASE: energy  _new < energy  _old

     new trust radius        =       0.0123021366 bohr
     new conv_thr            =            1.0E-10 Ry


ATOMIC_POSITIONS (crystal)
Ti       0.000000000   0.000000000  -0.000000000
Se       0.333461031   0.666538968   0.239986295
Se       0.666538968   0.333461031  -0.239986295
Li       0.000000000  -0.000000000   0.500000000



     Writing output data file TiSe2.save/
     NEW-OLD atomic charge density approx. for the potential

     total cpu time spent up to now is      712.3 secs

     Self-consistent Calculation

     iteration #  1     ecut=    70.00 Ry     beta= 0.70
     Davidson diagonalization with overlap
     ethr =  1.00E-06,  avg # of iterations =  4.0

     Threshold (ethr) on eigenvalues was too large:
     Diagonalizing with lowered threshold

     Davidson diagonalization with overlap
     ethr =  7.59E-08,  avg # of iterations =  1.0

     total cpu time spent up to now is      748.0 secs

     total energy              =    -610.03697527 Ry
     Harris-Foulkes estimate   =    -610.03700356 Ry
     estimated scf accuracy    <       0.00003449 Ry

     iteration #  2     ecut=    70.00 Ry     beta= 0.70
     Davidson diagonalization with overlap
     ethr =  7.48E-08,  avg # of iterations =  3.2

     total cpu time spent up to now is      762.6 secs

     total energy              =    -610.03692679 Ry
     Harris-Foulkes estimate   =    -610.03707972 Ry
     estimated scf accuracy    <       0.00069644 Ry

     iteration #  3     ecut=    70.00 Ry     beta= 0.70
     Davidson diagonalization with overlap
     ethr =  7.48E-08,  avg # of iterations =  2.7

     total cpu time spent up to now is      776.2 secs

     total energy              =    -610.03699880 Ry
     Harris-Foulkes estimate   =    -610.03699895 Ry
     estimated scf accuracy    <       0.00000036 Ry

     iteration #  4     ecut=    70.00 Ry     beta= 0.70
     Davidson diagonalization with overlap
     ethr =  7.70E-10,  avg # of iterations =  3.3

     total cpu time spent up to now is      791.7 secs

     total energy              =    -610.03699898 Ry
     Harris-Foulkes estimate   =    -610.03699903 Ry
     estimated scf accuracy    <       0.00000010 Ry

     iteration #  5     ecut=    70.00 Ry     beta= 0.70
     Davidson diagonalization with overlap
     ethr =  2.13E-10,  avg # of iterations =  2.0

     total cpu time spent up to now is      805.5 secs

     total energy              =    -610.03699900 Ry
     Harris-Foulkes estimate   =    -610.03699900 Ry
     estimated scf accuracy    <          2.1E-09 Ry

     iteration #  6     ecut=    70.00 Ry     beta= 0.70
     Davidson diagonalization with overlap
     ethr =  4.61E-12,  avg # of iterations =  3.1

     total cpu time spent up to now is      819.6 secs

     End of self-consistent calculation

     Number of k-points >= 100: set verbosity='high' to print the bands.

     the Fermi energy is    10.1772 ev

!    total energy              =    -610.03699900 Ry
     Harris-Foulkes estimate   =    -610.03699900 Ry
     estimated scf accuracy    <          4.1E-11 Ry

     The total energy is the sum of the following terms:

     one-electron contribution =    -321.52070535 Ry
     hartree contribution      =     172.36823356 Ry
     xc contribution           =    -114.97167958 Ry
     ewald contribution        =    -345.91274013 Ry
     smearing contrib. (-TS)   =      -0.00010750 Ry

     convergence has been achieved in   6 iterations

     Forces acting on atoms (cartesian axes, Ry/au):

     atom    1 type  1   force =     0.00000000    0.00000000    0.00000000
     atom    2 type  2   force =     0.00008490   -0.00008490    0.00008184
     atom    3 type  2   force =    -0.00008490    0.00008490   -0.00008184
     atom    4 type  3   force =     0.00000000    0.00000000    0.00000000

     Total force =     0.000206     Total SCF correction =     0.000046
     SCF correction compared to forces is large: reduce conv_thr to get better values


     Computing stress (Cartesian axis) and pressure

          total   stress  (Ry/bohr**3)                   (kbar)     P=  -43.66
  -0.00047177  -0.00000440  -0.00000249        -69.40     -0.65     -0.37
  -0.00000440  -0.00047177   0.00000249         -0.65    -69.40      0.37
  -0.00000249   0.00000249   0.00005322         -0.37      0.37      7.83


     number of scf cycles    =   5
     number of bfgs steps    =   4

     energy   old            =    -610.0369614635 Ry
     energy   new            =    -610.0369989984 Ry

     CASE: energy  _new < energy  _old

     new trust radius        =       0.0003231801 bohr
     new conv_thr            =            1.0E-10 Ry


ATOMIC_POSITIONS (crystal)
Ti       0.000000000   0.000000000  -0.000000000
Se       0.333470973   0.666529026   0.240012747
Se       0.666529026   0.333470973  -0.240012747
Li       0.000000000  -0.000000000   0.500000000



     Writing output data file TiSe2.save/
     NEW-OLD atomic charge density approx. for the potential

     total cpu time spent up to now is      862.4 secs

     Self-consistent Calculation

     iteration #  1     ecut=    70.00 Ry     beta= 0.70
     Davidson diagonalization with overlap
     ethr =  1.00E-06,  avg # of iterations =  2.0

     Threshold (ethr) on eigenvalues was too large:
     Diagonalizing with lowered threshold

     Davidson diagonalization with overlap
     ethr =  8.65E-11,  avg # of iterations =  4.0

     total cpu time spent up to now is      894.1 secs

     total energy              =    -610.03699904 Ry
     Harris-Foulkes estimate   =    -610.03699905 Ry
     estimated scf accuracy    <       0.00000002 Ry

     iteration #  2     ecut=    70.00 Ry     beta= 0.70
     Davidson diagonalization with overlap
     ethr =  3.53E-11,  avg # of iterations =  3.2

     total cpu time spent up to now is      908.6 secs

     total energy              =    -610.03699902 Ry
     Harris-Foulkes estimate   =    -610.03699908 Ry
     estimated scf accuracy    <       0.00000031 Ry

     iteration #  3     ecut=    70.00 Ry     beta= 0.70
     Davidson diagonalization with overlap
     ethr =  3.53E-11,  avg # of iterations =  2.6

     total cpu time spent up to now is      922.2 secs

     total energy              =    -610.03699905 Ry
     Harris-Foulkes estimate   =    -610.03699905 Ry
     estimated scf accuracy    <          4.0E-10 Ry

     iteration #  4     ecut=    70.00 Ry     beta= 0.70
     Davidson diagonalization with overlap
     ethr =  8.68E-13,  avg # of iterations =  3.0

     total cpu time spent up to now is      935.7 secs

     End of self-consistent calculation

     Number of k-points >= 100: set verbosity='high' to print the bands.

     the Fermi energy is    10.1771 ev

!    total energy              =    -610.03699905 Ry
     Harris-Foulkes estimate   =    -610.03699905 Ry
     estimated scf accuracy    <          5.3E-11 Ry

     The total energy is the sum of the following terms:

     one-electron contribution =    -321.49306918 Ry
     hartree contribution      =     172.35446983 Ry
     xc contribution           =    -114.97152871 Ry
     ewald contribution        =    -345.92676357 Ry
     smearing contrib. (-TS)   =      -0.00010741 Ry

     convergence has been achieved in   4 iterations

     Forces acting on atoms (cartesian axes, Ry/au):

     atom    1 type  1   force =     0.00000000    0.00000000    0.00000000
     atom    2 type  2   force =     0.00006925   -0.00006925   -0.00000015
     atom    3 type  2   force =    -0.00006925    0.00006925    0.00000015
     atom    4 type  3   force =     0.00000000    0.00000000    0.00000000

     Total force =     0.000139     Total SCF correction =     0.000084
     SCF correction compared to forces is large: reduce conv_thr to get better values


     Computing stress (Cartesian axis) and pressure

          total   stress  (Ry/bohr**3)                   (kbar)     P=  -43.73
  -0.00047214  -0.00000431  -0.00000260        -69.45     -0.63     -0.38
  -0.00000431  -0.00047214   0.00000260         -0.63    -69.45      0.38
  -0.00000260   0.00000260   0.00005243         -0.38      0.38      7.71


     number of scf cycles    =   6
     number of bfgs steps    =   5

     energy   old            =    -610.0369989984 Ry
     energy   new            =    -610.0369990487 Ry

     CASE: energy  _new < energy  _old

     new trust radius        =       0.0001955798 bohr
     new conv_thr            =            5.0E-12 Ry


ATOMIC_POSITIONS (crystal)
Ti       0.000000000   0.000000000  -0.000000000
Se       0.333486143   0.666513856   0.240020225
Se       0.666513856   0.333486143  -0.240020225
Li       0.000000000  -0.000000000   0.500000000



     Writing output data file TiSe2.save/
     NEW-OLD atomic charge density approx. for the potential

     total cpu time spent up to now is      978.4 secs

     Self-consistent Calculation

     iteration #  1     ecut=    70.00 Ry     beta= 0.70
     Davidson diagonalization with overlap
     ethr =  1.00E-06,  avg # of iterations =  2.0

     Threshold (ethr) on eigenvalues was too large:
     Diagonalizing with lowered threshold

     Davidson diagonalization with overlap
     ethr =  1.53E-11,  avg # of iterations =  4.0

     total cpu time spent up to now is     1011.4 secs

     total energy              =    -610.03699908 Ry
     Harris-Foulkes estimate   =    -610.03699908 Ry
     estimated scf accuracy    <          2.6E-09 Ry

     iteration #  2     ecut=    70.00 Ry     beta= 0.70
     Davidson diagonalization with overlap
     ethr =  5.67E-12,  avg # of iterations =  2.4

     total cpu time spent up to now is     1025.1 secs

     total energy              =    -610.03699908 Ry
     Harris-Foulkes estimate   =    -610.03699908 Ry
     estimated scf accuracy    <       0.00000002 Ry

     iteration #  3     ecut=    70.00 Ry     beta= 0.70
     Davidson diagonalization with overlap
     ethr =  5.67E-12,  avg # of iterations =  2.2

     total cpu time spent up to now is     1038.2 secs

     total energy              =    -610.03699908 Ry
     Harris-Foulkes estimate   =    -610.03699908 Ry
     estimated scf accuracy    <          1.8E-09 Ry

     iteration #  4     ecut=    70.00 Ry     beta= 0.70
     Davidson diagonalization with overlap
     ethr =  3.89E-12,  avg # of iterations =  1.4

     total cpu time spent up to now is     1049.5 secs

     total energy              =    -610.03699908 Ry
     Harris-Foulkes estimate   =    -610.03699908 Ry
     estimated scf accuracy    <          9.1E-12 Ry

     iteration #  5     ecut=    70.00 Ry     beta= 0.70
     Davidson diagonalization with overlap
     ethr =  1.00E-13,  avg # of iterations =  2.2

     total cpu time spent up to now is     1061.9 secs

     End of self-consistent calculation

     Number of k-points >= 100: set verbosity='high' to print the bands.

     the Fermi energy is    10.1771 ev

!    total energy              =    -610.03699908 Ry
     Harris-Foulkes estimate   =    -610.03699908 Ry
     estimated scf accuracy    <          7.4E-13 Ry

     The total energy is the sum of the following terms:

     one-electron contribution =    -321.48528179 Ry
     hartree contribution      =     172.35060684 Ry
     xc contribution           =    -114.97148588 Ry
     ewald contribution        =    -345.93073085 Ry
     smearing contrib. (-TS)   =      -0.00010739 Ry

     convergence has been achieved in   5 iterations

     Forces acting on atoms (cartesian axes, Ry/au):

     atom    1 type  1   force =     0.00000000    0.00000000    0.00000000
     atom    2 type  2   force =     0.00005416   -0.00005416   -0.00002174
     atom    3 type  2   force =    -0.00005416    0.00005416    0.00002174
     atom    4 type  3   force =     0.00000000    0.00000000    0.00000000

     Total force =     0.000113     Total SCF correction =     0.000005


     Computing stress (Cartesian axis) and pressure

          total   stress  (Ry/bohr**3)                   (kbar)     P=  -43.75
  -0.00047225  -0.00000417  -0.00000276        -69.47     -0.61     -0.41
  -0.00000417  -0.00047225   0.00000276         -0.61    -69.47      0.41
  -0.00000276   0.00000276   0.00005223         -0.41      0.41      7.68


     number of scf cycles    =   7
     number of bfgs steps    =   6

     energy   old            =    -610.0369990487 Ry
     energy   new            =    -610.0369990785 Ry

     CASE: energy  _new < energy  _old

     new trust radius        =       0.0002151378 bohr
     new conv_thr            =            3.0E-12 Ry


ATOMIC_POSITIONS (crystal)
Ti       0.000000000   0.000000000  -0.000000000
Se       0.333504620   0.666495379   0.240021811
Se       0.666495379   0.333504620  -0.240021811
Li       0.000000000  -0.000000000   0.500000000



     Writing output data file TiSe2.save/
     NEW-OLD atomic charge density approx. for the potential

     total cpu time spent up to now is     1104.6 secs

     Self-consistent Calculation

     iteration #  1     ecut=    70.00 Ry     beta= 0.70
     Davidson diagonalization with overlap
     ethr =  1.00E-06,  avg # of iterations =  2.0

     Threshold (ethr) on eigenvalues was too large:
     Diagonalizing with lowered threshold

     Davidson diagonalization with overlap
     ethr =  1.28E-11,  avg # of iterations =  4.5

     total cpu time spent up to now is     1138.1 secs

     total energy              =    -610.03699910 Ry
     Harris-Foulkes estimate   =    -610.03699910 Ry
     estimated scf accuracy    <          2.6E-09 Ry

     iteration #  2     ecut=    70.00 Ry     beta= 0.70
     Davidson diagonalization with overlap
     ethr =  5.60E-12,  avg # of iterations =  2.1

     total cpu time spent up to now is     1151.1 secs

     total energy              =    -610.03699910 Ry
     Harris-Foulkes estimate   =    -610.03699910 Ry
     estimated scf accuracy    <          2.7E-09 Ry

     iteration #  3     ecut=    70.00 Ry     beta= 0.70
     Davidson diagonalization with overlap
     ethr =  5.60E-12,  avg # of iterations =  2.2

     total cpu time spent up to now is     1163.8 secs

     total energy              =    -610.03699910 Ry
     Harris-Foulkes estimate   =    -610.03699910 Ry
     estimated scf accuracy    <          8.6E-09 Ry

     iteration #  4     ecut=    70.00 Ry     beta= 0.70
     Davidson diagonalization with overlap
     ethr =  5.60E-12,  avg # of iterations =  2.2

     total cpu time spent up to now is     1176.1 secs

     total energy              =    -610.03699910 Ry
     Harris-Foulkes estimate   =    -610.03699910 Ry
     estimated scf accuracy    <          7.8E-12 Ry

     iteration #  5     ecut=    70.00 Ry     beta= 0.70
     Davidson diagonalization with overlap
     ethr =  1.00E-13,  avg # of iterations =  2.1

     total cpu time spent up to now is     1187.8 secs

     End of self-consistent calculation

     Number of k-points >= 100: set verbosity='high' to print the bands.

     the Fermi energy is    10.1771 ev

!    total energy              =    -610.03699910 Ry
     Harris-Foulkes estimate   =    -610.03699910 Ry
     estimated scf accuracy    <          4.3E-13 Ry

     The total energy is the sum of the following terms:

     one-electron contribution =    -321.48361894 Ry
     hartree contribution      =     172.34978049 Ry
     xc contribution           =    -114.97147657 Ry
     ewald contribution        =    -345.93157670 Ry
     smearing contrib. (-TS)   =      -0.00010739 Ry

     convergence has been achieved in   5 iterations

     Forces acting on atoms (cartesian axes, Ry/au):

     atom    1 type  1   force =     0.00000000    0.00000000    0.00000000
     atom    2 type  2   force =     0.00003301   -0.00003301   -0.00002451
     atom    3 type  2   force =    -0.00003301    0.00003301    0.00002451
     atom    4 type  3   force =     0.00000000    0.00000000    0.00000000

     Total force =     0.000075     Total SCF correction =     0.000006


     Computing stress (Cartesian axis) and pressure

          total   stress  (Ry/bohr**3)                   (kbar)     P=  -43.76
  -0.00047228  -0.00000399  -0.00000296        -69.47     -0.59     -0.44
  -0.00000399  -0.00047228   0.00000296         -0.59    -69.47      0.44
  -0.00000296   0.00000296   0.00005218         -0.44      0.44      7.68


     number of scf cycles    =   8
     number of bfgs steps    =   7

     energy   old            =    -610.0369990785 Ry
     energy   new            =    -610.0369991032 Ry

     CASE: energy  _new < energy  _old

     new trust radius        =       0.0003227068 bohr
     new conv_thr            =            2.5E-12 Ry


ATOMIC_POSITIONS (crystal)
Ti       0.000000000   0.000000000   0.000000000
Se       0.333532178   0.666467821   0.240017990
Se       0.666467821   0.333532178  -0.240017990
Li       0.000000000  -0.000000000   0.500000000



     Writing output data file TiSe2.save/
     NEW-OLD atomic charge density approx. for the potential

     total cpu time spent up to now is     1230.5 secs

     Self-consistent Calculation

     iteration #  1     ecut=    70.00 Ry     beta= 0.70
     Davidson diagonalization with overlap
     ethr =  1.00E-06,  avg # of iterations =  2.0

     Threshold (ethr) on eigenvalues was too large:
     Diagonalizing with lowered threshold

     Davidson diagonalization with overlap
     ethr =  3.04E-11,  avg # of iterations =  4.6

     total cpu time spent up to now is     1264.0 secs

     total energy              =    -610.03699912 Ry
     Harris-Foulkes estimate   =    -610.03699912 Ry
     estimated scf accuracy    <          5.9E-09 Ry

     iteration #  2     ecut=    70.00 Ry     beta= 0.70
     Davidson diagonalization with overlap
     ethr =  1.27E-11,  avg # of iterations =  2.2

     total cpu time spent up to now is     1277.2 secs

     total energy              =    -610.03699911 Ry
     Harris-Foulkes estimate   =    -610.03699912 Ry
     estimated scf accuracy    <          7.5E-09 Ry

     iteration #  3     ecut=    70.00 Ry     beta= 0.70
     Davidson diagonalization with overlap
     ethr =  1.27E-11,  avg # of iterations =  2.2

     total cpu time spent up to now is     1289.9 secs

     total energy              =    -610.03699912 Ry
     Harris-Foulkes estimate   =    -610.03699912 Ry
     estimated scf accuracy    <       0.00000002 Ry

     iteration #  4     ecut=    70.00 Ry     beta= 0.70
     Davidson diagonalization with overlap
     ethr =  1.27E-11,  avg # of iterations =  2.1

     total cpu time spent up to now is     1302.0 secs

     total energy              =    -610.03699912 Ry
     Harris-Foulkes estimate   =    -610.03699912 Ry
     estimated scf accuracy    <          1.8E-11 Ry

     iteration #  5     ecut=    70.00 Ry     beta= 0.70
     Davidson diagonalization with overlap
     ethr =  1.00E-13,  avg # of iterations =  3.0

     total cpu time spent up to now is     1315.2 secs

     End of self-consistent calculation

     Number of k-points >= 100: set verbosity='high' to print the bands.

     the Fermi energy is    10.1771 ev

!    total energy              =    -610.03699912 Ry
     Harris-Foulkes estimate   =    -610.03699912 Ry
     estimated scf accuracy    <          2.2E-12 Ry

     The total energy is the sum of the following terms:

     one-electron contribution =    -321.48758411 Ry
     hartree contribution      =     172.35175000 Ry
     xc contribution           =    -114.97149784 Ry
     ewald contribution        =    -345.92955977 Ry
     smearing contrib. (-TS)   =      -0.00010740 Ry

     convergence has been achieved in   5 iterations

     Forces acting on atoms (cartesian axes, Ry/au):

     atom    1 type  1   force =     0.00000000    0.00000000    0.00000000
     atom    2 type  2   force =    -0.00000059    0.00000059   -0.00001701
     atom    3 type  2   force =     0.00000059   -0.00000059    0.00001701
     atom    4 type  3   force =     0.00000000    0.00000000    0.00000000

     Total force =     0.000024     Total SCF correction =     0.000018
     SCF correction compared to forces is large: reduce conv_thr to get better values


     Computing stress (Cartesian axis) and pressure

          total   stress  (Ry/bohr**3)                   (kbar)     P=  -43.75
  -0.00047222  -0.00000374  -0.00000327        -69.47     -0.55     -0.48
  -0.00000374  -0.00047222   0.00000327         -0.55    -69.47      0.48
  -0.00000327   0.00000327   0.00005228         -0.48      0.48      7.69


     number of scf cycles    =   9
     number of bfgs steps    =   8

     energy   old            =    -610.0369991032 Ry
     energy   new            =    -610.0369991174 Ry

     CASE: energy  _new < energy  _old

     small trust_radius: resetting bfgs history

     new trust radius        =       0.0000170354 bohr
     new conv_thr            =            1.4E-12 Ry


ATOMIC_POSITIONS (crystal)
Ti       0.000000000   0.000000000   0.000000000
Se       0.333532093   0.666467906   0.240016500
Se       0.666467906   0.333532093  -0.240016500
Li       0.000000000  -0.000000000   0.500000000



     Writing output data file TiSe2.save/
     NEW-OLD atomic charge density approx. for the potential

     total cpu time spent up to now is     1357.9 secs

     Self-consistent Calculation

     iteration #  1     ecut=    70.00 Ry     beta= 0.70
     Davidson diagonalization with overlap
     ethr =  1.00E-06,  avg # of iterations =  1.0

     Threshold (ethr) on eigenvalues was too large:
     Diagonalizing with lowered threshold

     Davidson diagonalization with overlap
     ethr =  4.19E-12,  avg # of iterations =  3.1

     total cpu time spent up to now is     1387.6 secs

     total energy              =    -610.03699912 Ry
     Harris-Foulkes estimate   =    -610.03699912 Ry
     estimated scf accuracy    <          1.5E-10 Ry

     iteration #  2     ecut=    70.00 Ry     beta= 0.70
     Davidson diagonalization with overlap
     ethr =  3.19E-13,  avg # of iterations =  3.2

     total cpu time spent up to now is     1402.6 secs

     total energy              =    -610.03699912 Ry
     Harris-Foulkes estimate   =    -610.03699912 Ry
     estimated scf accuracy    <          3.1E-09 Ry

     iteration #  3     ecut=    70.00 Ry     beta= 0.70
     Davidson diagonalization with overlap
     ethr =  3.19E-13,  avg # of iterations =  2.8

     total cpu time spent up to now is     1416.3 secs

     total energy              =    -610.03699912 Ry
     Harris-Foulkes estimate   =    -610.03699912 Ry
     estimated scf accuracy    <          3.8E-12 Ry

     iteration #  4     ecut=    70.00 Ry     beta= 0.70
     Davidson diagonalization with overlap
     ethr =  1.00E-13,  avg # of iterations =  1.0

     total cpu time spent up to now is     1427.2 secs

     End of self-consistent calculation

     Number of k-points >= 100: set verbosity='high' to print the bands.

     the Fermi energy is    10.1771 ev

!    total energy              =    -610.03699912 Ry
     Harris-Foulkes estimate   =    -610.03699912 Ry
     estimated scf accuracy    <          8.9E-14 Ry

     The total energy is the sum of the following terms:

     one-electron contribution =    -321.48914586 Ry
     hartree contribution      =     172.35253113 Ry
     xc contribution           =    -114.97150674 Ry
     ewald contribution        =    -345.92877024 Ry
     smearing contrib. (-TS)   =      -0.00010741 Ry

     convergence has been achieved in   4 iterations

     Forces acting on atoms (cartesian axes, Ry/au):

     atom    1 type  1   force =    -0.00000000   -0.00000000    0.00000000
     atom    2 type  2   force =    -0.00000347    0.00000347   -0.00001045
     atom    3 type  2   force =     0.00000347   -0.00000347    0.00001045
     atom    4 type  3   force =    -0.00000000   -0.00000000    0.00000000

     Total force =     0.000016     Total SCF correction =     0.000003
     SCF correction compared to forces is large: reduce conv_thr to get better values


     Computing stress (Cartesian axis) and pressure

          total   stress  (Ry/bohr**3)                   (kbar)     P=  -43.74
  -0.00047220  -0.00000374  -0.00000326        -69.46     -0.55     -0.48
  -0.00000374  -0.00047220   0.00000326         -0.55    -69.46      0.48
  -0.00000326   0.00000326   0.00005233         -0.48      0.48      7.70


     number of scf cycles    =  10
     number of bfgs steps    =   9

     energy   old            =    -610.0369991174 Ry
     energy   new            =    -610.0369991177 Ry

     CASE: energy  _new < energy  _old

     Message from routine bfgs:
     history already reset at previous step: stopping
     small trust_radius: resetting bfgs history

     new trust radius        =       0.0000115498 bohr
     new conv_thr            =            1.0E-12 Ry


ATOMIC_POSITIONS (crystal)
Ti       0.000000000   0.000000000   0.000000000
Se       0.333531662   0.666468337   0.240015588
Se       0.666468337   0.333531662  -0.240015588
Li       0.000000000  -0.000000000   0.500000000



     Writing output data file TiSe2.save/
     NEW-OLD atomic charge density approx. for the potential

     total cpu time spent up to now is     1469.9 secs

     Self-consistent Calculation

     iteration #  1     ecut=    70.00 Ry     beta= 0.70
     Davidson diagonalization with overlap
     ethr =  1.00E-06,  avg # of iterations =  1.0

     Threshold (ethr) on eigenvalues was too large:
     Diagonalizing with lowered threshold

     Davidson diagonalization with overlap
     ethr =  2.07E-12,  avg # of iterations =  3.0

     total cpu time spent up to now is     1499.0 secs

     total energy              =    -610.03699912 Ry
     Harris-Foulkes estimate   =    -610.03699912 Ry
     estimated scf accuracy    <          2.5E-11 Ry

     iteration #  2     ecut=    70.00 Ry     beta= 0.70
     Davidson diagonalization with overlap
     ethr =  1.00E-13,  avg # of iterations =  2.4

     total cpu time spent up to now is     1512.1 secs

     total energy              =    -610.03699912 Ry
     Harris-Foulkes estimate   =    -610.03699912 Ry
     estimated scf accuracy    <          4.9E-10 Ry

     iteration #  3     ecut=    70.00 Ry     beta= 0.70
     Davidson diagonalization with overlap
     ethr =  1.00E-13,  avg # of iterations =  2.2

     total cpu time spent up to now is     1525.4 secs

     End of self-consistent calculation

     Number of k-points >= 100: set verbosity='high' to print the bands.

     the Fermi energy is    10.1771 ev

!    total energy              =    -610.03699912 Ry
     Harris-Foulkes estimate   =    -610.03699912 Ry
     estimated scf accuracy    <          3.5E-13 Ry

     The total energy is the sum of the following terms:

     one-electron contribution =    -321.49009845 Ry
     hartree contribution      =     172.35300571 Ry
     xc contribution           =    -114.97151215 Ry
     ewald contribution        =    -345.92828682 Ry
     smearing contrib. (-TS)   =      -0.00010741 Ry

     convergence has been achieved in   3 iterations

     Forces acting on atoms (cartesian axes, Ry/au):

     atom    1 type  1   force =     0.00000000    0.00000000    0.00000000
     atom    2 type  2   force =    -0.00000295    0.00000295   -0.00000523
     atom    3 type  2   force =     0.00000295   -0.00000295    0.00000523
     atom    4 type  3   force =     0.00000000    0.00000000    0.00000000

     Total force =     0.000009     Total SCF correction =     0.000003
     SCF correction compared to forces is large: reduce conv_thr to get better values


     Computing stress (Cartesian axis) and pressure

          total   stress  (Ry/bohr**3)                   (kbar)     P=  -43.74
  -0.00047218  -0.00000374  -0.00000326        -69.46     -0.55     -0.48
  -0.00000374  -0.00047218   0.00000326         -0.55    -69.46      0.48
  -0.00000326   0.00000326   0.00005236         -0.48      0.48      7.70

     Message from routine bfgs:
     history already reset at previous step: stopping

     bfgs converged in  11 scf cycles and  10 bfgs steps
     (criteria: energy <  1.0E-08 Ry, force <  1.0E-08 Ry/Bohr)

     End of BFGS Geometry Optimization

     Final energy   =    -610.0369991179 Ry
Begin final coordinates

ATOMIC_POSITIONS (crystal)
Ti       0.000000000   0.000000000   0.000000000
Se       0.333531662   0.666468337   0.240015588
Se       0.666468337   0.333531662  -0.240015588
Li       0.000000000  -0.000000000   0.500000000
End final coordinates



     Writing output data file TiSe2.save/

     init_run     :     15.34s CPU     15.81s WALL (       1 calls)
     electrons    :    851.80s CPU   1081.97s WALL (      11 calls)
     update_pot   :    112.85s CPU    112.83s WALL (      10 calls)
     forces       :    106.38s CPU    121.95s WALL (      11 calls)
     stress       :    188.54s CPU    219.13s WALL (      11 calls)

     Called by init_run:
     wfcinit      :      3.49s CPU      3.50s WALL (       1 calls)
     potinit      :      4.33s CPU      4.68s WALL (       1 calls)
     hinit0       :      7.45s CPU      7.45s WALL (       1 calls)

     Called by electrons:
     c_bands      :    763.29s CPU    962.95s WALL (      72 calls)
     sum_band     :     74.33s CPU     86.24s WALL (      72 calls)
     v_of_rho     :      6.83s CPU      6.83s WALL (      75 calls)
     mix_rho      :      2.65s CPU      2.66s WALL (      72 calls)

     Called by c_bands:
     init_us_2    :     11.79s CPU     11.84s WALL (    4676 calls)
     cegterg      :    704.46s CPU    705.32s WALL (    2016 calls)

     Called by sum_band:

     Called by *egterg:
     h_psi        :    492.11s CPU    492.85s WALL (    7639 calls)
     g_psi        :      3.11s CPU      3.11s WALL (    5595 calls)
     cdiaghg      :     13.47s CPU     13.47s WALL (    7107 calls)

     Called by h_psi:
     h_psi:pot    :    489.15s CPU    489.66s WALL (    7639 calls)
     h_psi:calbec :     82.06s CPU     82.08s WALL (    7639 calls)
     vloc_psi     :    328.26s CPU    328.67s WALL (    7639 calls)
     add_vuspsi   :     78.81s CPU     78.88s WALL (    7639 calls)

     General routines
     calbec       :    107.08s CPU    107.13s WALL (    9179 calls)
     fft          :      6.91s CPU      6.91s WALL (     448 calls)
     ffts         :      0.27s CPU      0.27s WALL (     147 calls)
     fftw         :    353.93s CPU    354.64s WALL (  352152 calls)
     interpolate  :      1.54s CPU      1.55s WALL (      75 calls)

     Parallel routines

     PWSCF        :  21m18.55s CPU  26m16.01s WALL


   This run was terminated on:   1:16: 7  17Feb2020            

=------------------------------------------------------------------------------=
   JOB DONE.
=------------------------------------------------------------------------------=
