
     Program PWSCF v.5.1rc1 starts on 19May2020 at 22:25:20 

     This program is part of the open-source Quantum ESPRESSO suite
     for quantum simulation of materials; please cite
         "P. Giannozzi et al., J. Phys.:Condens. Matter 21 395502 (2009);
          URL http://www.quantum-espresso.org", 
     in publications or presentations arising from this work. More details at
     http://www.quantum-espresso.org/quote

     Parallel version (MPI), running on    40 processors
     K-points division:     npool     =      40
     Reading input from bulk_Si_pwscf_bands.in

     Current dimensions of program PWSCF are:
     Max number of different atomic species (ntypx) = 10
     Max number of k-points (npk) =  40000
     Max angular momentum in pseudopotentials (lmaxx) =  3

     Atomic positions and unit cell read from directory:
     ./outdir/bulk_Si_exmpl2_BandUP.save/

               file Ti.pz-spn-rrkjus_psl.1.0.0.UPF: wavefunction(s)  3S 3D renormalized

     Subspace diagonalization in iterative solution of the eigenvalue problem:
     a serial algorithm will be used

     Found symmetry operation: I + ( -0.5000 -0.5000  0.0000)
     This is a supercell, fractional translations are disabled

     G-vector sticks info
     --------------------
     sticks:   dense  smooth     PW     G-vecs:    dense   smooth      PW
     Sum        9901    3463    929              1345863   278829   38979



     bravais-lattice index     =            0
     lattice parameter (alat)  =      13.3793  a.u.
     unit-cell volume          =    3522.1144 (a.u.)^3
     number of atoms/cell      =           24
     number of atomic types    =            2
     number of electrons       =       192.00
     number of Kohn-Sham states=          200
     kinetic-energy cutoff     =      70.0000  Ry
     charge density cutoff     =     800.0000  Ry
     Exchange-correlation      = LDA ( 1  1  0  0 0)

     celldm(1)=  13.379260  celldm(2)=   0.000000  celldm(3)=   0.000000
     celldm(4)=   0.000000  celldm(5)=   0.000000  celldm(6)=   0.000000

     crystal axes: (cart. coord. in units of alat)
               a(1) = (   0.966063  -0.258191   0.007696 )  
               a(2) = (  -0.258191   0.966063  -0.007696 )  
               a(3) = (  -0.013060   0.013060   1.696830 )  

     reciprocal axes: (cart. coord. in units 2 pi/alat)
               b(1) = (  1.114714  0.297969  0.006286 )  
               b(2) = (  0.297969  1.114714 -0.006286 )  
               b(3) = ( -0.003704  0.003704  0.589277 )  


     PseudoPot. # 1 for Ti read from file:
     ../../pseudo/Ti.pz-spn-rrkjus_psl.1.0.0.UPF
     MD5 check sum: 2354b1dd637eae4f0b5af1ae1c6b5e32
     Pseudo is Ultrasoft + core correction, Zval = 12.0
     Generated using "atomic" code by A. Dal Corso  v.6.2.2
     Using radial grid of 1177 points,  6 beta functions with: 
                l(1) =   0
                l(2) =   0
                l(3) =   1
                l(4) =   1
                l(5) =   2
                l(6) =   2
     Q(r) pseudized with 0 coefficients 


     PseudoPot. # 2 for Se read from file:
     ../../pseudo/Se.pz-n-rrkjus_psl.0.2.UPF
     MD5 check sum: 25603cecb1b2b0d484ba6e75ea72c72e
     Pseudo is Ultrasoft + core correction, Zval =  6.0
     Generated using "atomic" code by A. Dal Corso  v.5.0.2 svn rev. 9415
     Using radial grid of 1211 points,  4 beta functions with: 
                l(1) =   0
                l(2) =   0
                l(3) =   1
                l(4) =   1
     Q(r) pseudized with 0 coefficients 


     atomic species   valence    mass     pseudopotential
        Ti            12.00    47.86700     Ti( 1.00)
        Se             6.00    78.97100     Se( 1.00)

      4 Sym. Ops., with inversion, found



   Cartesian axes

     site n.     atom                  positions (alat units)
         1           Ti  tau(   1) = (   0.0000000   0.0000000   0.0000000  )
         2           Ti  tau(   2) = (   0.3539364   0.3539364   0.0000000  )
         3           Ti  tau(   3) = (  -0.1290953   0.4830317  -0.0038480  )
         4           Ti  tau(   4) = (   0.4830317  -0.1290953   0.0038480  )
         5           Ti  tau(   5) = (  -0.0065299   0.0065299   0.8484152  )
         6           Ti  tau(   6) = (   0.3474065   0.3604663   0.8484152  )
         7           Ti  tau(   7) = (  -0.1356252   0.4895616   0.8445672  )
         8           Ti  tau(   8) = (   0.4765018  -0.1225654   0.8522632  )
         9           Se  tau(   9) = (   0.0736375   0.2802991   0.2117413  )
        10           Se  tau(  10) = (   0.2802991   0.0736375  -0.2117413  )
        11           Se  tau(  11) = (  -0.0554578   0.7633306   0.2078931  )
        12           Se  tau(  12) = (   0.1512037   0.5566691  -0.2155894  )
        13           Se  tau(  13) = (   0.7633306  -0.0554578  -0.2078931  )
        14           Se  tau(  14) = (   0.5566691   0.1512037   0.2155894  )
        15           Se  tau(  15) = (   0.4275737   0.6342353   0.2117413  )
        16           Se  tau(  16) = (   0.6342353   0.4275737  -0.2117413  )
        17           Se  tau(  17) = (   0.0671074   0.2868289   1.0601565  )
        18           Se  tau(  18) = (   0.2868289   0.0671074  -1.0601565  )
        19           Se  tau(  19) = (  -0.0619877   0.7698605   1.0563083  )
        20           Se  tau(  20) = (   0.1577335   0.5501393  -1.0640046  )
        21           Se  tau(  21) = (   0.7698605  -0.0619877  -1.0563083  )
        22           Se  tau(  22) = (   0.5501393   0.1577335   1.0640046  )
        23           Se  tau(  23) = (   0.4210439   0.6407654   1.0601565  )
        24           Se  tau(  24) = (   0.6407654   0.4210439  -1.0601565  )

     number of k points=   896  Marzari-Vanderbilt smearing, width (Ry)=  0.0100

     Number of k-points >= 100: set verbosity='high' to print them.

     Dense  grid:  1345863 G-vectors     FFT dimensions: ( 125, 125, 216)

     Smooth grid:   278829 G-vectors     FFT dimensions: (  72,  72, 125)

     Largest allocated arrays     est. size (Mb)     dimensions
        Kohn-Sham Wavefunctions       106.49 Mb     (   34895,  200)
        NL pseudopotentials           144.83 Mb     (   34895,  272)
        Each V/rho on FFT grid         51.50 Mb     ( 3375000)
        Each G-vector array            10.27 Mb     ( 1345863)
        G-vector shells                 2.60 Mb     (  340667)
     Largest temporary arrays     est. size (Mb)     dimensions
        Auxiliary wavefunctions       425.96 Mb     (   34895,  800)
        Each subspace H/S matrix        9.77 Mb     (     800,  800)
        Each <psi_i|beta_j> matrix      0.83 Mb     (     272,  200)

     The potential is recalculated from file :
     ./outdir/bulk_Si_exmpl2_BandUP.save/charge-density.dat

     Starting wfc are  144 randomized atomic wfcs +   56 random wfc

     Band Structure Calculation
     Davidson diagonalization with overlap

     ethr =  5.21E-14,  avg # of iterations = 30.3

     total cpu time spent up to now is    30231.3 secs

     End of band structure calculation

     Number of k-points >= 100: set verbosity='high' to print the bands.

     Writing output data file bulk_Si_exmpl2_BandUP.save

     init_run     :     85.27s CPU     87.60s WALL (       1 calls)
     electrons    :  25523.91s CPU  30141.08s WALL (       1 calls)

     Called by init_run:
     wfcinit      :      0.00s CPU      0.00s WALL (       1 calls)
     potinit      :      1.97s CPU      3.99s WALL (       1 calls)

     Called by electrons:
     c_bands      :  25523.82s CPU  30140.67s WALL (       1 calls)
     v_of_rho     :      0.54s CPU      0.58s WALL (       1 calls)
     newd         :     44.99s CPU     45.12s WALL (       1 calls)

     Called by c_bands:
     init_us_2    :      1.71s CPU      1.90s WALL (      23 calls)
     cegterg      :  22248.94s CPU  22270.09s WALL (      46 calls)

     Called by *egterg:
     h_psi        :   6125.59s CPU   6129.06s WALL (     640 calls)
     s_psi        :   1750.65s CPU   1750.85s WALL (     640 calls)
     g_psi        :     16.53s CPU     16.52s WALL (     571 calls)
     cdiaghg      :    492.03s CPU    492.22s WALL (     594 calls)

     Called by h_psi:
     add_vuspsi   :   1741.97s CPU   1742.27s WALL (     640 calls)

     General routines
     calbec       :   1787.47s CPU   1787.76s WALL (     640 calls)
     fft          :      0.86s CPU      0.90s WALL (       6 calls)
     ffts         :      0.02s CPU      0.04s WALL (       1 calls)
     fftw         :   2112.69s CPU   2115.04s WALL (  145126 calls)
     interpolate  :      0.17s CPU      0.21s WALL (       1 calls)

     Parallel routines
     fft_scatter  :    196.64s CPU    196.12s WALL (  145133 calls)

     PWSCF        :     7h10m CPU        8h54m WALL


   This run was terminated on:   7:19:30  20May2020            

=------------------------------------------------------------------------------=
   JOB DONE.
=------------------------------------------------------------------------------=
