
     Program BANDS v.6.4 starts on  5Nov2019 at 20:15:20 

     This program is part of the open-source Quantum ESPRESSO suite
     for quantum simulation of materials; please cite
         "P. Giannozzi et al., J. Phys.:Condens. Matter 21 395502 (2009);
         "P. Giannozzi et al., J. Phys.:Condens. Matter 29 465901 (2017);
          URL http://www.quantum-espresso.org", 
     in publications or presentations arising from this work. More details at
     http://www.quantum-espresso.org/quote

     Parallel version (MPI), running on    64 processors

     MPI processes distributed on     8 nodes
     K-points division:     npool     =      64

     Reading data from directory:
     ./tmp/TiSe2.save/

     IMPORTANT: XC functional enforced from input :
     Exchange-correlation      = PW ( 1  4  0  0 0 0)
     Any further DFT definition will be discarded
     Please, verify this is what you really want


     G-vector sticks info
     --------------------
     sticks:   dense  smooth     PW     G-vecs:    dense   smooth      PW
     Sum        2479     859    253               168117    34781    5529

     high-symmetry point:  0.0000 0.0000 0.0000   x coordinate   0.0000
     high-symmetry point:  0.5574 0.1490 0.0031   x coordinate   0.5769
     high-symmetry point:  0.4712 0.4712 0.0000   x coordinate   0.9105
     high-symmetry point:  0.0000 0.0000 0.0000   x coordinate   1.5770
     high-symmetry point: -0.0019 0.0019 0.2946   x coordinate   1.8716
     high-symmetry point:  0.5552 0.1509 0.2972   x coordinate   2.4482
     high-symmetry point:  0.4692 0.4729 0.2946   x coordinate   2.7815
     high-symmetry point: -0.0019 0.0019 0.2946   x coordinate   3.4476

     Plottable bands (eV) written to file bands.dat.gnu
     Bands written to file bands.dat

 **************************************************************************

                    xk=(   0.00000,   0.00000,   0.00000  )

     point group C_2h (2/m) 
     there are  4 classes
     the character table:

       E     C2    i     s_h  
A_g    1.00  1.00  1.00  1.00
B_g    1.00 -1.00  1.00 -1.00
A_u    1.00  1.00 -1.00 -1.00
B_u    1.00 -1.00 -1.00  1.00

     the symmetry operations in each class and the name of the first element:

     E        1
                                                                 
     C2       2
                                                                 
     i        3
                                                                 
     s_h      4
                                                                 

     Band symmetry, C_2h (2/m)  point group:

     e(  1 -  1) =    -47.29658  eV     1   --> A_g            
     e(  2 -  2) =    -37.79076  eV     1   --> B_g            
     e(  3 -  3) =    -37.79053  eV     1   --> A_g            
     e(  4 -  5) =    -37.79043  eV     2   --> A_u            
     e(  4 -  5) =    -37.79043  eV     2   --> B_u            
     e(  6 -  6) =    -37.77553  eV     1   --> B_g            
     e(  7 -  7) =    -37.77535  eV     1   --> A_g            
     e(  8 -  9) =    -37.77410  eV     2   --> A_u            
     e(  8 -  9) =    -37.77410  eV     2   --> B_u            
     e( 10 - 10) =    -37.76604  eV     1   --> B_u            
     e( 11 - 11) =    -37.76280  eV     1   --> A_g            
     e( 12 - 12) =    -23.84999  eV     1   --> B_u            
     e( 13 - 13) =    -23.83216  eV     1   --> A_u            
     e( 14 - 14) =    -23.83106  eV     1   --> B_u            
     e( 15 - 15) =     -4.29728  eV     1   --> A_g            
     e( 16 - 16) =     -2.85380  eV     1   --> B_u            
     e( 17 - 17) =      4.38593  eV     1   --> A_g            
     e( 18 - 18) =      7.29058  eV     1   --> B_g            
     e( 19 - 19) =      7.29766  eV     1   --> A_g            
     e( 20 - 20) =      9.90774  eV     1   --> B_u            
     e( 21 - 21) =     10.10002  eV     1   --> B_g            
     e( 22 - 22) =     10.10572  eV     1   --> A_g            
     e( 23 - 23) =     10.15439  eV     1   --> A_u            
     e( 24 - 24) =     10.16901  eV     1   --> B_u            
     e( 25 - 25) =     10.35990  eV     1   --> A_g            
     e( 26 - 26) =     13.15028  eV     1   --> A_g            
     e( 27 - 27) =     13.15090  eV     1   --> B_g            
     e( 28 - 28) =     15.27787  eV     1   --> B_u            
     e( 29 - 29) =     15.33986  eV     1   --> A_g            
     e( 30 - 30) =     19.08489  eV     1   --> A_u            
     e( 31 - 31) =     19.10248  eV     1   --> B_u            
     e( 32 - 32) =     20.73733  eV     1   --> A_g            
     e( 33 - 33) =     22.11986  eV     1   --> B_g            
     e( 34 - 34) =     22.15247  eV     1   --> A_g            
     e( 35 - 35) =     22.41747  eV     1   --> B_u            
     e( 36 - 36) =     22.68150  eV     1   --> A_g            
     e( 37 - 37) =     23.47716  eV     1   --> B_g            
     e( 38 - 38) =     23.47792  eV     1   --> A_g            
     e( 39 - 39) =     24.02884  eV     1   --> A_u            
     e( 40 - 40) =     24.07841  eV     1   --> B_u            

 **************************************************************************

 **************************************************************************

                    xk=(   0.00334,   0.00089,   0.00002  )

     point group C_1 (1)    
     there are  1 classes
     the character table:

       E    
A      1.00

     the symmetry operations in each class and the name of the first element:

     E        1
                                                                 

     Band symmetry, C_1 (1)     point group:

     e(  1 -  1) =    -47.29658  eV     1   --> A              
     e(  2 -  2) =    -37.79076  eV     1   --> A              
     e(  3 -  3) =    -37.79053  eV     1   --> A              
     e(  4 -  5) =    -37.79043  eV     2   -->   2 A              
     e(  6 -  6) =    -37.77553  eV     1   --> A              
     e(  7 -  7) =    -37.77535  eV     1   --> A              
     e(  8 -  9) =    -37.77410  eV     2   -->   2 A              
     e( 10 - 10) =    -37.76604  eV     1   --> A              
     e( 11 - 11) =    -37.76280  eV     1   --> A              
     e( 12 - 12) =    -23.84999  eV     1   --> A              
     e( 13 - 13) =    -23.83217  eV     1   --> A              
     e( 14 - 14) =    -23.83106  eV     1   --> A              
     e( 15 - 15) =     -4.29719  eV     1   --> A              
     e( 16 - 16) =     -2.85377  eV     1   --> A              
     e( 17 - 17) =      4.38606  eV     1   --> A              
     e( 18 - 18) =      7.29040  eV     1   --> A              
     e( 19 - 19) =      7.29762  eV     1   --> A              
     e( 20 - 20) =      9.90778  eV     1   --> A              
     e( 21 - 21) =     10.09449  eV     1   --> A              
     e( 22 - 22) =     10.09938  eV     1   --> A              
     e( 23 - 23) =     10.15995  eV     1   --> A              
     e( 24 - 24) =     10.17379  eV     1   --> A              
     e( 25 - 25) =     10.36065  eV     1   --> A              
     e( 26 - 26) =     13.15002  eV     1   --> A              
     e( 27 - 27) =     13.15057  eV     1   --> A              
     e( 28 - 28) =     15.27881  eV     1   --> A              
     e( 29 - 29) =     15.34050  eV     1   --> A              
     e( 30 - 30) =     19.08467  eV     1   --> A              
     e( 31 - 31) =     19.10269  eV     1   --> A              
     e( 32 - 32) =     20.73744  eV     1   --> A              
     e( 33 - 33) =     22.11604  eV     1   --> A              
     e( 34 - 34) =     22.15136  eV     1   --> A              
     e( 35 - 35) =     22.42127  eV     1   --> A              
     e( 36 - 36) =     22.68032  eV     1   --> A              
     e( 37 - 37) =     23.47272  eV     1   --> A              
     e( 38 - 38) =     23.47436  eV     1   --> A              
     e( 39 - 39) =     24.03316  eV     1   --> A              
     e( 40 - 40) =     24.08237  eV     1   --> A              

 **************************************************************************

 **************************************************************************

                    xk=(   0.00667,   0.00178,   0.00004  )

     Band symmetry, C_1 (1)     point group:

     e(  1 -  1) =    -47.29658  eV     1   --> A              
     e(  2 -  2) =    -37.79095  eV     1   --> A              
     e(  3 -  3) =    -37.79074  eV     1   --> A              
     e(  4 -  5) =    -37.79051  eV     2   -->   2 A              
     e(  6 -  7) =    -37.77533  eV     2   -->   2 A              
     e(  8 -  9) =    -37.77414  eV     2   -->   2 A              
     e( 10 - 10) =    -37.76604  eV     1   --> A              
     e( 11 - 11) =    -37.76276  eV     1   --> A              
     e( 12 - 12) =    -23.84999  eV     1   --> A              
     e( 13 - 13) =    -23.83219  eV     1   --> A              
     e( 14 - 14) =    -23.83107  eV     1   --> A              
     e( 15 - 15) =     -4.29689  eV     1   --> A              
     e( 16 - 16) =     -2.85368  eV     1   --> A              
     e( 17 - 17) =      4.38645  eV     1   --> A              
     e( 18 - 18) =      7.28980  eV     1   --> A              
     e( 19 - 19) =      7.29751  eV     1   --> A              
     e( 20 - 20) =      9.90789  eV     1   --> A              
     e( 21 - 21) =     10.08043  eV     1   --> A              
     e( 22 - 22) =     10.08561  eV     1   --> A              
     e( 23 - 23) =     10.17145  eV     1   --> A              
     e( 24 - 24) =     10.18552  eV     1   --> A              
     e( 25 - 25) =     10.36290  eV     1   --> A              
     e( 26 - 26) =     13.14850  eV     1   --> A              
     e( 27 - 27) =     13.15017  eV     1   --> A              
     e( 28 - 28) =     15.28163  eV     1   --> A              
     e( 29 - 29) =     15.34241  eV     1   --> A              
     e( 30 - 30) =     19.08372  eV     1   --> A              
     e( 31 - 31) =     19.10331  eV     1   --> A              
     e( 32 - 32) =     20.73786  eV     1   --> A              
     e( 33 - 33) =     22.10409  eV     1   --> A              
     e( 34 - 34) =     22.14968  eV     1   --> A              
     e( 35 - 35) =     22.43180  eV     1   --> A              
     e( 36 - 36) =     22.67675  eV     1   --> A              
     e( 37 - 37) =     23.46004  eV     1   --> A              
     e( 38 - 38) =     23.46443  eV     1   --> A              
     e( 39 - 39) =     24.04517  eV     1   --> A              
     e( 40 - 40) =     24.09381  eV     1   --> A              

 **************************************************************************

 **************************************************************************

                    xk=(   0.01001,   0.00268,   0.00006  )

     Band symmetry, C_1 (1)     point group:

     e(  1 -  1) =    -47.29657  eV     1   --> A              
     e(  2 -  2) =    -37.79087  eV     1   --> A              
     e(  3 -  3) =    -37.79075  eV     1   --> A              
     e(  4 -  5) =    -37.79051  eV     2   -->   2 A              
     e(  6 -  6) =    -37.77546  eV     1   --> A              
     e(  7 -  7) =    -37.77520  eV     1   --> A              
     e(  8 -  8) =    -37.77416  eV     1   --> A              
     e(  9 -  9) =    -37.77403  eV     1   --> A              
     e( 10 - 10) =    -37.76603  eV     1   --> A              
     e( 11 - 11) =    -37.76276  eV     1   --> A              
     e( 12 - 12) =    -23.84998  eV     1   --> A              
     e( 13 - 13) =    -23.83222  eV     1   --> A              
     e( 14 - 14) =    -23.83109  eV     1   --> A              
     e( 15 - 15) =     -4.29640  eV     1   --> A              
     e( 16 - 16) =     -2.85353  eV     1   --> A              
     e( 17 - 17) =      4.38710  eV     1   --> A              
     e( 18 - 18) =      7.28878  eV     1   --> A              
     e( 19 - 19) =      7.29742  eV     1   --> A              
     e( 20 - 20) =      9.90807  eV     1   --> A              
     e( 21 - 21) =     10.06167  eV     1   --> A              
     e( 22 - 22) =     10.06924  eV     1   --> A              
     e( 23 - 23) =     10.18375  eV     1   --> A              
     e( 24 - 24) =     10.20067  eV     1   --> A              
     e( 25 - 25) =     10.36667  eV     1   --> A              
     e( 26 - 26) =     13.14593  eV     1   --> A              
     e( 27 - 27) =     13.14980  eV     1   --> A              
     e( 28 - 28) =     15.28632  eV     1   --> A              
     e( 29 - 29) =     15.34559  eV     1   --> A              
     e( 30 - 30) =     19.08230  eV     1   --> A              
     e( 31 - 31) =     19.10471  eV     1   --> A              
     e( 32 - 32) =     20.73838  eV     1   --> A              
     e( 33 - 33) =     22.08367  eV     1   --> A              
     e( 34 - 34) =     22.14885  eV     1   --> A              
     e( 35 - 35) =     22.44702  eV     1   --> A              
     e( 36 - 36) =     22.67072  eV     1   --> A              
     e( 37 - 37) =     23.44070  eV     1   --> A              
     e( 38 - 38) =     23.44847  eV     1   --> A              
     e( 39 - 39) =     24.06350  eV     1   --> A              
     e( 40 - 40) =     24.11187  eV     1   --> A              

 **************************************************************************

 **************************************************************************

                    xk=(   0.01335,   0.00357,   0.00008  )

     Band symmetry, C_1 (1)     point group:

     e(  1 -  1) =    -47.29657  eV     1   --> A              
     e(  2 -  2) =    -37.79087  eV     1   --> A              
     e(  3 -  3) =    -37.79076  eV     1   --> A              
     e(  4 -  4) =    -37.79045  eV     1   --> A              
     e(  5 -  5) =    -37.79032  eV     1   --> A              
     e(  6 -  6) =    -37.77546  eV     1   --> A              
     e(  7 -  7) =    -37.77513  eV     1   --> A              
     e(  8 -  8) =    -37.77438  eV     1   --> A              
     e(  9 -  9) =    -37.77415  eV     1   --> A              
     e( 10 - 10) =    -37.76597  eV     1   --> A              
     e( 11 - 11) =    -37.76273  eV     1   --> A              
     e( 12 - 12) =    -23.84996  eV     1   --> A              
     e( 13 - 13) =    -23.83227  eV     1   --> A              
     e( 14 - 14) =    -23.83111  eV     1   --> A              
     e( 15 - 15) =     -4.29572  eV     1   --> A              
     e( 16 - 16) =     -2.85332  eV     1   --> A              
     e( 17 - 17) =      4.38802  eV     1   --> A              
     e( 18 - 18) =      7.28726  eV     1   --> A              
     e( 19 - 19) =      7.29741  eV     1   --> A              
     e( 20 - 20) =      9.90832  eV     1   --> A              
     e( 21 - 21) =     10.04043  eV     1   --> A              
     e( 22 - 22) =     10.05160  eV     1   --> A              
     e( 23 - 23) =     10.19515  eV     1   --> A              
     e( 24 - 24) =     10.21740  eV     1   --> A              
     e( 25 - 25) =     10.37194  eV     1   --> A              
     e( 26 - 26) =     13.14234  eV     1   --> A              
     e( 27 - 27) =     13.14930  eV     1   --> A              
     e( 28 - 28) =     15.29288  eV     1   --> A              
     e( 29 - 29) =     15.35003  eV     1   --> A              
     e( 30 - 30) =     19.07990  eV     1   --> A              
     e( 31 - 31) =     19.10705  eV     1   --> A              
     e( 32 - 32) =     20.73918  eV     1   --> A              
     e( 33 - 33) =     22.05703  eV     1   --> A              
     e( 34 - 34) =     22.14899  eV     1   --> A              
     e( 35 - 35) =     22.46467  eV     1   --> A              
     e( 36 - 36) =     22.66217  eV     1   --> A              
     e( 37 - 37) =     23.41736  eV     1   --> A              
     e( 38 - 38) =     23.42752  eV     1   --> A              
     e( 39 - 39) =     24.08585  eV     1   --> A              
     e( 40 - 40) =     24.13488  eV     1   --> A              

 **************************************************************************

 **************************************************************************

                    xk=(   0.01669,   0.00446,   0.00009  )

     Band symmetry, C_1 (1)     point group:

     e(  1 -  1) =    -47.29656  eV     1   --> A              
     e(  2 -  3) =    -37.79079  eV     2   -->   2 A              
     e(  4 -  4) =    -37.79043  eV     1   --> A              
     e(  5 -  5) =    -37.79011  eV     1   --> A              
     e(  6 -  6) =    -37.77529  eV     1   --> A              
     e(  7 -  7) =    -37.77516  eV     1   --> A              
     e(  8 -  8) =    -37.77444  eV     1   --> A              
     e(  9 -  9) =    -37.77415  eV     1   --> A              
     e( 10 - 10) =    -37.76585  eV     1   --> A              
     e( 11 - 11) =    -37.76271  eV     1   --> A              
     e( 12 - 12) =    -23.84995  eV     1   --> A              
     e( 13 - 13) =    -23.83234  eV     1   --> A              
     e( 14 - 14) =    -23.83114  eV     1   --> A              
     e( 15 - 15) =     -4.29484  eV     1   --> A              
     e( 16 - 16) =     -2.85304  eV     1   --> A              
     e( 17 - 17) =      4.38919  eV     1   --> A              
     e( 18 - 18) =      7.28524  eV     1   --> A              
     e( 19 - 19) =      7.29752  eV     1   --> A              
     e( 20 - 20) =      9.90863  eV     1   --> A              
     e( 21 - 21) =     10.01757  eV     1   --> A              
     e( 22 - 22) =     10.03328  eV     1   --> A              
     e( 23 - 23) =     10.20518  eV     1   --> A              
     e( 24 - 24) =     10.23488  eV     1   --> A              
     e( 25 - 25) =     10.37864  eV     1   --> A              
     e( 26 - 26) =     13.13784  eV     1   --> A              
     e( 27 - 27) =     13.14872  eV     1   --> A              
     e( 28 - 28) =     15.30129  eV     1   --> A              
     e( 29 - 29) =     15.35573  eV     1   --> A              
     e( 30 - 30) =     19.07689  eV     1   --> A              
     e( 31 - 31) =     19.11040  eV     1   --> A              
     e( 32 - 32) =     20.74025  eV     1   --> A              
     e( 33 - 33) =     22.02601  eV     1   --> A              
     e( 34 - 34) =     22.15025  eV     1   --> A              
     e( 35 - 35) =     22.48270  eV     1   --> A              
     e( 36 - 36) =     22.65108  eV     1   --> A              
     e( 37 - 37) =     23.39190  eV     1   --> A              
     e( 38 - 38) =     23.40240  eV     1   --> A              
     e( 39 - 39) =     24.11081  eV     1   --> A              
     e( 40 - 40) =     24.16154  eV     1   --> A              

 **************************************************************************

 **************************************************************************

                    xk=(   0.02002,   0.00535,   0.00011  )

     Band symmetry, C_1 (1)     point group:

     e(  1 -  1) =    -47.29655  eV     1   --> A              
     e(  2 -  2) =    -37.79078  eV     1   --> A              
     e(  3 -  3) =    -37.79061  eV     1   --> A              
     e(  4 -  4) =    -37.79044  eV     1   --> A              
     e(  5 -  5) =    -37.79003  eV     1   --> A              
     e(  6 -  6) =    -37.77548  eV     1   --> A              
     e(  7 -  7) =    -37.77525  eV     1   --> A              
     e(  8 -  8) =    -37.77456  eV     1   --> A              
     e(  9 -  9) =    -37.77434  eV     1   --> A              
     e( 10 - 10) =    -37.76574  eV     1   --> A              
     e( 11 - 11) =    -37.76272  eV     1   --> A              
     e( 12 - 12) =    -23.84993  eV     1   --> A              
     e( 13 - 13) =    -23.83241  eV     1   --> A              
     e( 14 - 14) =    -23.83117  eV     1   --> A              
     e( 15 - 15) =     -4.29377  eV     1   --> A              
     e( 16 - 16) =     -2.85271  eV     1   --> A              
     e( 17 - 17) =      4.39062  eV     1   --> A              
     e( 18 - 18) =      7.28269  eV     1   --> A              
     e( 19 - 19) =      7.29771  eV     1   --> A              
     e( 20 - 20) =      9.90898  eV     1   --> A              
     e( 21 - 21) =      9.99338  eV     1   --> A              
     e( 22 - 22) =     10.01451  eV     1   --> A              
     e( 23 - 23) =     10.21368  eV     1   --> A              
     e( 24 - 24) =     10.25269  eV     1   --> A              
     e( 25 - 25) =     10.38668  eV     1   --> A              
     e( 26 - 26) =     13.13238  eV     1   --> A              
     e( 27 - 27) =     13.14800  eV     1   --> A              
     e( 28 - 28) =     15.31147  eV     1   --> A              
     e( 29 - 29) =     15.36268  eV     1   --> A              
     e( 30 - 30) =     19.07315  eV     1   --> A              
     e( 31 - 31) =     19.11440  eV     1   --> A              
     e( 32 - 32) =     20.74148  eV     1   --> A              
     e( 33 - 33) =     21.99203  eV     1   --> A              
     e( 34 - 34) =     22.15159  eV     1   --> A              
     e( 35 - 35) =     22.49920  eV     1   --> A              
     e( 36 - 36) =     22.63773  eV     1   --> A              
     e( 37 - 37) =     23.36680  eV     1   --> A              
     e( 38 - 38) =     23.37340  eV     1   --> A              
     e( 39 - 39) =     24.13684  eV     1   --> A              
     e( 40 - 40) =     24.19023  eV     1   --> A              

 **************************************************************************

 **************************************************************************

                    xk=(   0.02336,   0.00624,   0.00013  )

     Band symmetry, C_1 (1)     point group:

     e(  1 -  1) =    -47.29654  eV     1   --> A              
     e(  2 -  2) =    -37.79077  eV     1   --> A              
     e(  3 -  3) =    -37.79059  eV     1   --> A              
     e(  4 -  4) =    -37.79037  eV     1   --> A              
     e(  5 -  5) =    -37.78978  eV     1   --> A              
     e(  6 -  6) =    -37.77548  eV     1   --> A              
     e(  7 -  7) =    -37.77525  eV     1   --> A              
     e(  8 -  8) =    -37.77447  eV     1   --> A              
     e(  9 -  9) =    -37.77433  eV     1   --> A              
     e( 10 - 10) =    -37.76563  eV     1   --> A              
     e( 11 - 11) =    -37.76272  eV     1   --> A              
     e( 12 - 12) =    -23.84990  eV     1   --> A              
     e( 13 - 13) =    -23.83251  eV     1   --> A              
     e( 14 - 14) =    -23.83121  eV     1   --> A              
     e( 15 - 15) =     -4.29249  eV     1   --> A              
     e( 16 - 16) =     -2.85232  eV     1   --> A              
     e( 17 - 17) =      4.39231  eV     1   --> A              
     e( 18 - 18) =      7.27961  eV     1   --> A              
     e( 19 - 19) =      7.29802  eV     1   --> A              
     e( 20 - 20) =      9.90936  eV     1   --> A              
     e( 21 - 21) =      9.96808  eV     1   --> A              
     e( 22 - 22) =      9.99553  eV     1   --> A              
     e( 23 - 23) =     10.22075  eV     1   --> A              
     e( 24 - 24) =     10.27068  eV     1   --> A              
     e( 25 - 25) =     10.39590  eV     1   --> A              
     e( 26 - 26) =     13.12599  eV     1   --> A              
     e( 27 - 27) =     13.14718  eV     1   --> A              
     e( 28 - 28) =     15.32339  eV     1   --> A              
     e( 29 - 29) =     15.37088  eV     1   --> A              
     e( 30 - 30) =     19.06834  eV     1   --> A              
     e( 31 - 31) =     19.11969  eV     1   --> A              
     e( 32 - 32) =     20.74296  eV     1   --> A              
     e( 33 - 33) =     21.95596  eV     1   --> A              
     e( 34 - 34) =     22.15380  eV     1   --> A              
     e( 35 - 35) =     22.51191  eV     1   --> A              
     e( 36 - 36) =     22.62310  eV     1   --> A              
     e( 37 - 37) =     23.34183  eV     1   --> A              
     e( 38 - 38) =     23.34452  eV     1   --> A              
     e( 39 - 39) =     24.16322  eV     1   --> A              
     e( 40 - 40) =     24.22116  eV     1   --> A              

 **************************************************************************

 **************************************************************************

                    xk=(   0.02670,   0.00714,   0.00015  )

     Band symmetry, C_1 (1)     point group:

     e(  1 -  1) =    -47.29653  eV     1   --> A              
     e(  2 -  2) =    -37.79077  eV     1   --> A              
     e(  3 -  3) =    -37.79059  eV     1   --> A              
     e(  4 -  4) =    -37.79036  eV     1   --> A              
     e(  5 -  5) =    -37.78978  eV     1   --> A              
     e(  6 -  6) =    -37.77549  eV     1   --> A              
     e(  7 -  7) =    -37.77525  eV     1   --> A              
     e(  8 -  8) =    -37.77447  eV     1   --> A              
     e(  9 -  9) =    -37.77434  eV     1   --> A              
     e( 10 - 10) =    -37.76563  eV     1   --> A              
     e( 11 - 11) =    -37.76272  eV     1   --> A              
     e( 12 - 12) =    -23.84987  eV     1   --> A              
     e( 13 - 13) =    -23.83262  eV     1   --> A              
     e( 14 - 14) =    -23.83125  eV     1   --> A              
     e( 15 - 15) =     -4.29103  eV     1   --> A              
     e( 16 - 16) =     -2.85187  eV     1   --> A              
     e( 17 - 17) =      4.39426  eV     1   --> A              
     e( 18 - 18) =      7.27600  eV     1   --> A              
     e( 19 - 19) =      7.29842  eV     1   --> A              
     e( 20 - 20) =      9.90969  eV     1   --> A              
     e( 21 - 21) =      9.94185  eV     1   --> A              
     e( 22 - 22) =      9.97636  eV     1   --> A              
     e( 23 - 23) =     10.22645  eV     1   --> A              
     e( 24 - 24) =     10.28871  eV     1   --> A              
     e( 25 - 25) =     10.40610  eV     1   --> A              
     e( 26 - 26) =     13.11871  eV     1   --> A              
     e( 27 - 27) =     13.14622  eV     1   --> A              
     e( 28 - 28) =     15.33693  eV     1   --> A              
     e( 29 - 29) =     15.38032  eV     1   --> A              
     e( 30 - 30) =     19.06249  eV     1   --> A              
     e( 31 - 31) =     19.12561  eV     1   --> A              
     e( 32 - 32) =     20.74463  eV     1   --> A              
     e( 33 - 33) =     21.91830  eV     1   --> A              
     e( 34 - 34) =     22.15642  eV     1   --> A              
     e( 35 - 35) =     22.51721  eV     1   --> A              
     e( 36 - 36) =     22.60976  eV     1   --> A              
     e( 37 - 37) =     23.30869  eV     1   --> A              
     e( 38 - 38) =     23.32545  eV     1   --> A              
     e( 39 - 39) =     24.18931  eV     1   --> A              
     e( 40 - 40) =     24.25400  eV     1   --> A              

 **************************************************************************

 **************************************************************************

                    xk=(   0.03004,   0.00803,   0.00017  )

     Band symmetry, C_1 (1)     point group:

     e(  1 -  1) =    -47.29652  eV     1   --> A              
     e(  2 -  2) =    -37.79076  eV     1   --> A              
     e(  3 -  3) =    -37.79058  eV     1   --> A              
     e(  4 -  4) =    -37.79036  eV     1   --> A              
     e(  5 -  5) =    -37.78979  eV     1   --> A              
     e(  6 -  6) =    -37.77549  eV     1   --> A              
     e(  7 -  7) =    -37.77526  eV     1   --> A              
     e(  8 -  8) =    -37.77448  eV     1   --> A              
     e(  9 -  9) =    -37.77434  eV     1   --> A              
     e( 10 - 10) =    -37.76563  eV     1   --> A              
     e( 11 - 11) =    -37.76271  eV     1   --> A              
     e( 12 - 12) =    -23.84984  eV     1   --> A              
     e( 13 - 13) =    -23.83274  eV     1   --> A              
     e( 14 - 14) =    -23.83130  eV     1   --> A              
     e( 15 - 15) =     -4.28937  eV     1   --> A              
     e( 16 - 16) =     -2.85136  eV     1   --> A              
     e( 17 - 17) =      4.39647  eV     1   --> A              
     e( 18 - 18) =      7.27188  eV     1   --> A              
     e( 19 - 19) =      7.29890  eV     1   --> A              
     e( 20 - 20) =      9.90857  eV     1   --> A              
     e( 21 - 21) =      9.91612  eV     1   --> A              
     e( 22 - 22) =      9.95706  eV     1   --> A              
     e( 23 - 23) =     10.23096  eV     1   --> A              
     e( 24 - 24) =     10.30673  eV     1   --> A              
     e( 25 - 25) =     10.41709  eV     1   --> A              
     e( 26 - 26) =     13.11060  eV     1   --> A              
     e( 27 - 27) =     13.14513  eV     1   --> A              
     e( 28 - 28) =     15.35209  eV     1   --> A              
     e( 29 - 29) =     15.39100  eV     1   --> A              
     e( 30 - 30) =     19.05584  eV     1   --> A              
     e( 31 - 31) =     19.13240  eV     1   --> A              
     e( 32 - 32) =     20.74652  eV     1   --> A              
     e( 33 - 33) =     21.87946  eV     1   --> A              
     e( 34 - 34) =     22.15944  eV     1   --> A              
     e( 35 - 35) =     22.51022  eV     1   --> A              
     e( 36 - 36) =     22.60188  eV     1   --> A              
     e( 37 - 37) =     23.27377  eV     1   --> A              
     e( 38 - 38) =     23.31131  eV     1   --> A              
     e( 39 - 39) =     24.21513  eV     1   --> A              
     e( 40 - 40) =     24.28885  eV     1   --> A              

 **************************************************************************

 **************************************************************************

                    xk=(   0.03337,   0.00892,   0.00019  )

     Band symmetry, C_1 (1)     point group:

     e(  1 -  1) =    -47.29651  eV     1   --> A              
     e(  2 -  2) =    -37.79075  eV     1   --> A              
     e(  3 -  3) =    -37.79056  eV     1   --> A              
     e(  4 -  4) =    -37.79028  eV     1   --> A              
     e(  5 -  5) =    -37.78964  eV     1   --> A              
     e(  6 -  6) =    -37.77549  eV     1   --> A              
     e(  7 -  7) =    -37.77526  eV     1   --> A              
     e(  8 -  8) =    -37.77440  eV     1   --> A              
     e(  9 -  9) =    -37.77422  eV     1   --> A              
     e( 10 - 10) =    -37.76552  eV     1   --> A              
     e( 11 - 11) =    -37.76271  eV     1   --> A              
     e( 12 - 12) =    -23.84980  eV     1   --> A              
     e( 13 - 13) =    -23.83289  eV     1   --> A              
     e( 14 - 14) =    -23.83135  eV     1   --> A              
     e( 15 - 15) =     -4.28752  eV     1   --> A              
     e( 16 - 16) =     -2.85079  eV     1   --> A              
     e( 17 - 17) =      4.39895  eV     1   --> A              
     e( 18 - 18) =      7.26728  eV     1   --> A              
     e( 19 - 19) =      7.29948  eV     1   --> A              
     e( 20 - 20) =      9.88547  eV     1   --> A              
     e( 21 - 21) =      9.91150  eV     1   --> A              
     e( 22 - 22) =      9.93769  eV     1   --> A              
     e( 23 - 23) =     10.23446  eV     1   --> A              
     e( 24 - 24) =     10.32473  eV     1   --> A              
     e( 25 - 25) =     10.42868  eV     1   --> A              
     e( 26 - 26) =     13.10174  eV     1   --> A              
     e( 27 - 27) =     13.14396  eV     1   --> A              
     e( 28 - 28) =     15.36882  eV     1   --> A              
     e( 29 - 29) =     15.40293  eV     1   --> A              
     e( 30 - 30) =     19.04856  eV     1   --> A              
     e( 31 - 31) =     19.14039  eV     1   --> A              
     e( 32 - 32) =     20.74864  eV     1   --> A              
     e( 33 - 33) =     21.83973  eV     1   --> A              
     e( 34 - 34) =     22.16290  eV     1   --> A              
     e( 35 - 35) =     22.48937  eV     1   --> A              
     e( 36 - 36) =     22.60070  eV     1   --> A              
     e( 37 - 37) =     23.23761  eV     1   --> A              
     e( 38 - 38) =     23.30262  eV     1   --> A              
     e( 39 - 39) =     24.24099  eV     1   --> A              
     e( 40 - 40) =     24.32562  eV     1   --> A              

 **************************************************************************

 **************************************************************************

                    xk=(   0.03671,   0.00981,   0.00021  )

     Band symmetry, C_1 (1)     point group:

     e(  1 -  1) =    -47.29649  eV     1   --> A              
     e(  2 -  2) =    -37.79073  eV     1   --> A              
     e(  3 -  3) =    -37.79054  eV     1   --> A              
     e(  4 -  4) =    -37.79011  eV     1   --> A              
     e(  5 -  5) =    -37.78959  eV     1   --> A              
     e(  6 -  6) =    -37.77549  eV     1   --> A              
     e(  7 -  7) =    -37.77526  eV     1   --> A              
     e(  8 -  8) =    -37.77440  eV     1   --> A              
     e(  9 -  9) =    -37.77422  eV     1   --> A              
     e( 10 - 10) =    -37.76546  eV     1   --> A              
     e( 11 - 11) =    -37.76270  eV     1   --> A              
     e( 12 - 12) =    -23.84976  eV     1   --> A              
     e( 13 - 13) =    -23.83305  eV     1   --> A              
     e( 14 - 14) =    -23.83140  eV     1   --> A              
     e( 15 - 15) =     -4.28547  eV     1   --> A              
     e( 16 - 16) =     -2.85016  eV     1   --> A              
     e( 17 - 17) =      4.40168  eV     1   --> A              
     e( 18 - 18) =      7.26220  eV     1   --> A              
     e( 19 - 19) =      7.30014  eV     1   --> A              
     e( 20 - 20) =      9.85659  eV     1   --> A              
     e( 21 - 21) =      9.91171  eV     1   --> A              
     e( 22 - 22) =      9.91833  eV     1   --> A              
     e( 23 - 23) =     10.23708  eV     1   --> A              
     e( 24 - 24) =     10.34264  eV     1   --> A              
     e( 25 - 25) =     10.44069  eV     1   --> A              
     e( 26 - 26) =     13.09216  eV     1   --> A              
     e( 27 - 27) =     13.14268  eV     1   --> A              
     e( 28 - 28) =     15.38694  eV     1   --> A              
     e( 29 - 29) =     15.41615  eV     1   --> A              
     e( 30 - 30) =     19.04045  eV     1   --> A              
     e( 31 - 31) =     19.14907  eV     1   --> A              
     e( 32 - 32) =     20.75097  eV     1   --> A              
     e( 33 - 33) =     21.79930  eV     1   --> A              
     e( 34 - 34) =     22.16670  eV     1   --> A              
     e( 35 - 35) =     22.45797  eV     1   --> A              
     e( 36 - 36) =     22.60282  eV     1   --> A              
     e( 37 - 37) =     23.20049  eV     1   --> A              
     e( 38 - 38) =     23.29960  eV     1   --> A              
     e( 39 - 39) =     24.26722  eV     1   --> A              
     e( 40 - 40) =     24.36386  eV     1   --> A              

 **************************************************************************

 **************************************************************************

                    xk=(   0.04005,   0.01071,   0.00023  )

     Band symmetry, C_1 (1)     point group:

     e(  1 -  1) =    -47.29648  eV     1   --> A              
     e(  2 -  2) =    -37.79073  eV     1   --> A              
     e(  3 -  3) =    -37.79053  eV     1   --> A              
     e(  4 -  4) =    -37.79002  eV     1   --> A              
     e(  5 -  5) =    -37.78959  eV     1   --> A              
     e(  6 -  6) =    -37.77551  eV     1   --> A              
     e(  7 -  7) =    -37.77533  eV     1   --> A              
     e(  8 -  8) =    -37.77440  eV     1   --> A              
     e(  9 -  9) =    -37.77429  eV     1   --> A              
     e( 10 - 10) =    -37.76541  eV     1   --> A              
     e( 11 - 11) =    -37.76269  eV     1   --> A              
     e( 12 - 12) =    -23.84972  eV     1   --> A              
     e( 13 - 13) =    -23.83323  eV     1   --> A              
     e( 14 - 14) =    -23.83146  eV     1   --> A              
     e( 15 - 15) =     -4.28323  eV     1   --> A              
     e( 16 - 16) =     -2.84947  eV     1   --> A              
     e( 17 - 17) =      4.40467  eV     1   --> A              
     e( 18 - 18) =      7.25665  eV     1   --> A              
     e( 19 - 19) =      7.30086  eV     1   --> A              
     e( 20 - 20) =      9.82674  eV     1   --> A              
     e( 21 - 21) =      9.89859  eV     1   --> A              
     e( 22 - 22) =      9.91239  eV     1   --> A              
     e( 23 - 23) =     10.23898  eV     1   --> A              
     e( 24 - 24) =     10.36045  eV     1   --> A              
     e( 25 - 25) =     10.45294  eV     1   --> A              
     e( 26 - 26) =     13.08193  eV     1   --> A              
     e( 27 - 27) =     13.14127  eV     1   --> A              
     e( 28 - 28) =     15.40630  eV     1   --> A              
     e( 29 - 29) =     15.43076  eV     1   --> A              
     e( 30 - 30) =     19.03169  eV     1   --> A              
     e( 31 - 31) =     19.15844  eV     1   --> A              
     e( 32 - 32) =     20.75350  eV     1   --> A              
     e( 33 - 33) =     21.75830  eV     1   --> A              
     e( 34 - 34) =     22.17076  eV     1   --> A              
     e( 35 - 35) =     22.41934  eV     1   --> A              
     e( 36 - 36) =     22.60517  eV     1   --> A              
     e( 37 - 37) =     23.16243  eV     1   --> A              
     e( 38 - 38) =     23.30220  eV     1   --> A              
     e( 39 - 39) =     24.29412  eV     1   --> A              
     e( 40 - 40) =     24.40334  eV     1   --> A              

 **************************************************************************

 **************************************************************************

                    xk=(   0.04339,   0.01160,   0.00024  )

     Band symmetry, C_1 (1)     point group:

     e(  1 -  1) =    -47.29646  eV     1   --> A              
     e(  2 -  2) =    -37.79075  eV     1   --> A              
     e(  3 -  3) =    -37.79058  eV     1   --> A              
     e(  4 -  4) =    -37.79002  eV     1   --> A              
     e(  5 -  5) =    -37.78970  eV     1   --> A              
     e(  6 -  6) =    -37.77554  eV     1   --> A              
     e(  7 -  7) =    -37.77533  eV     1   --> A              
     e(  8 -  8) =    -37.77445  eV     1   --> A              
     e(  9 -  9) =    -37.77429  eV     1   --> A              
     e( 10 - 10) =    -37.76548  eV     1   --> A              
     e( 11 - 11) =    -37.76289  eV     1   --> A              
     e( 12 - 12) =    -23.84967  eV     1   --> A              
     e( 13 - 13) =    -23.83342  eV     1   --> A              
     e( 14 - 14) =    -23.83152  eV     1   --> A              
     e( 15 - 15) =     -4.28079  eV     1   --> A              
     e( 16 - 16) =     -2.84872  eV     1   --> A              
     e( 17 - 17) =      4.40791  eV     1   --> A              
     e( 18 - 18) =      7.25063  eV     1   --> A              
     e( 19 - 19) =      7.30162  eV     1   --> A              
     e( 20 - 20) =      9.79605  eV     1   --> A              
     e( 21 - 21) =      9.87905  eV     1   --> A              
     e( 22 - 22) =      9.91285  eV     1   --> A              
     e( 23 - 23) =     10.24026  eV     1   --> A              
     e( 24 - 24) =     10.37814  eV     1   --> A              
     e( 25 - 25) =     10.46533  eV     1   --> A              
     e( 26 - 26) =     13.07106  eV     1   --> A              
     e( 27 - 27) =     13.13969  eV     1   --> A              
     e( 28 - 28) =     15.42656  eV     1   --> A              
     e( 29 - 29) =     15.44694  eV     1   --> A              
     e( 30 - 30) =     19.02221  eV     1   --> A              
     e( 31 - 31) =     19.16844  eV     1   --> A              
     e( 32 - 32) =     20.75573  eV     1   --> A              
     e( 33 - 33) =     21.71693  eV     1   --> A              
     e( 34 - 34) =     22.17528  eV     1   --> A              
     e( 35 - 35) =     22.37541  eV     1   --> A              
     e( 36 - 36) =     22.60629  eV     1   --> A              
     e( 37 - 37) =     23.12395  eV     1   --> A              
     e( 38 - 38) =     23.31006  eV     1   --> A              
     e( 39 - 39) =     24.32205  eV     1   --> A              
     e( 40 - 40) =     24.44374  eV     1   --> A              

 **************************************************************************

 **************************************************************************

                    xk=(   0.04672,   0.01249,   0.00026  )

     Band symmetry, C_1 (1)     point group:

     e(  1 -  1) =    -47.29645  eV     1   --> A              
     e(  2 -  2) =    -37.79074  eV     1   --> A              
     e(  3 -  3) =    -37.79061  eV     1   --> A              
     e(  4 -  4) =    -37.79027  eV     1   --> A              
     e(  5 -  5) =    -37.78978  eV     1   --> A              
     e(  6 -  6) =    -37.77560  eV     1   --> A              
     e(  7 -  7) =    -37.77542  eV     1   --> A              
     e(  8 -  8) =    -37.77463  eV     1   --> A              
     e(  9 -  9) =    -37.77445  eV     1   --> A              
     e( 10 - 10) =    -37.76548  eV     1   --> A              
     e( 11 - 11) =    -37.76290  eV     1   --> A              
     e( 12 - 12) =    -23.84962  eV     1   --> A              
     e( 13 - 13) =    -23.83364  eV     1   --> A              
     e( 14 - 14) =    -23.83158  eV     1   --> A              
     e( 15 - 15) =     -4.27816  eV     1   --> A              
     e( 16 - 16) =     -2.84791  eV     1   --> A              
     e( 17 - 17) =      4.41142  eV     1   --> A              
     e( 18 - 18) =      7.24414  eV     1   --> A              
     e( 19 - 19) =      7.30246  eV     1   --> A              
     e( 20 - 20) =      9.76459  eV     1   --> A              
     e( 21 - 21) =      9.85943  eV     1   --> A              
     e( 22 - 22) =      9.91331  eV     1   --> A              
     e( 23 - 23) =     10.24102  eV     1   --> A              
     e( 24 - 24) =     10.39571  eV     1   --> A              
     e( 25 - 25) =     10.47775  eV     1   --> A              
     e( 26 - 26) =     13.05962  eV     1   --> A              
     e( 27 - 27) =     13.13803  eV     1   --> A              
     e( 28 - 28) =     15.44731  eV     1   --> A              
     e( 29 - 29) =     15.46509  eV     1   --> A              
     e( 30 - 30) =     19.01193  eV     1   --> A              
     e( 31 - 31) =     19.17930  eV     1   --> A              
     e( 32 - 32) =     20.75861  eV     1   --> A              
     e( 33 - 33) =     21.67519  eV     1   --> A              
     e( 34 - 34) =     22.18003  eV     1   --> A              
     e( 35 - 35) =     22.32730  eV     1   --> A              
     e( 36 - 36) =     22.60562  eV     1   --> A              
     e( 37 - 37) =     23.08501  eV     1   --> A              
     e( 38 - 38) =     23.32266  eV     1   --> A              
     e( 39 - 39) =     24.35096  eV     1   --> A              
     e( 40 - 40) =     24.48476  eV     1   --> A              

 **************************************************************************

 **************************************************************************

                    xk=(   0.05006,   0.01338,   0.00028  )

     Band symmetry, C_1 (1)     point group:

     e(  1 -  1) =    -47.29643  eV     1   --> A              
     e(  2 -  2) =    -37.79072  eV     1   --> A              
     e(  3 -  3) =    -37.79059  eV     1   --> A              
     e(  4 -  4) =    -37.79015  eV     1   --> A              
     e(  5 -  5) =    -37.78973  eV     1   --> A              
     e(  6 -  6) =    -37.77560  eV     1   --> A              
     e(  7 -  7) =    -37.77542  eV     1   --> A              
     e(  8 -  8) =    -37.77487  eV     1   --> A              
     e(  9 -  9) =    -37.77447  eV     1   --> A              
     e( 10 - 10) =    -37.76543  eV     1   --> A              
     e( 11 - 11) =    -37.76289  eV     1   --> A              
     e( 12 - 12) =    -23.84957  eV     1   --> A              
     e( 13 - 13) =    -23.83387  eV     1   --> A              
     e( 14 - 14) =    -23.83164  eV     1   --> A              
     e( 15 - 15) =     -4.27534  eV     1   --> A              
     e( 16 - 16) =     -2.84704  eV     1   --> A              
     e( 17 - 17) =      4.41518  eV     1   --> A              
     e( 18 - 18) =      7.23724  eV     1   --> A              
     e( 19 - 19) =      7.30339  eV     1   --> A              
     e( 20 - 20) =      9.73237  eV     1   --> A              
     e( 21 - 21) =      9.83980  eV     1   --> A              
     e( 22 - 22) =      9.91374  eV     1   --> A              
     e( 23 - 23) =     10.24136  eV     1   --> A              
     e( 24 - 24) =     10.41316  eV     1   --> A              
     e( 25 - 25) =     10.49013  eV     1   --> A              
     e( 26 - 26) =     13.04777  eV     1   --> A              
     e( 27 - 27) =     13.13634  eV     1   --> A              
     e( 28 - 28) =     15.46796  eV     1   --> A              
     e( 29 - 29) =     15.48572  eV     1   --> A              
     e( 30 - 30) =     19.00130  eV     1   --> A              
     e( 31 - 31) =     19.19108  eV     1   --> A              
     e( 32 - 32) =     20.76174  eV     1   --> A              
     e( 33 - 33) =     21.63327  eV     1   --> A              
     e( 34 - 34) =     22.18526  eV     1   --> A              
     e( 35 - 35) =     22.27581  eV     1   --> A              
     e( 36 - 36) =     22.60318  eV     1   --> A              
     e( 37 - 37) =     23.04583  eV     1   --> A              
     e( 38 - 38) =     23.33951  eV     1   --> A              
     e( 39 - 39) =     24.38116  eV     1   --> A              
     e( 40 - 40) =     24.52678  eV     1   --> A              

 **************************************************************************

 **************************************************************************

                    xk=(   0.05340,   0.01427,   0.00030  )

     Band symmetry, C_1 (1)     point group:

     e(  1 -  1) =    -47.29641  eV     1   --> A              
     e(  2 -  2) =    -37.79069  eV     1   --> A              
     e(  3 -  3) =    -37.79057  eV     1   --> A              
     e(  4 -  4) =    -37.79014  eV     1   --> A              
     e(  5 -  5) =    -37.78972  eV     1   --> A              
     e(  6 -  7) =    -37.77542  eV     2   -->   2 A              
     e(  8 -  8) =    -37.77487  eV     1   --> A              
     e(  9 -  9) =    -37.77444  eV     1   --> A              
     e( 10 - 10) =    -37.76542  eV     1   --> A              
     e( 11 - 11) =    -37.76286  eV     1   --> A              
     e( 12 - 12) =    -23.84951  eV     1   --> A              
     e( 13 - 13) =    -23.83412  eV     1   --> A              
     e( 14 - 14) =    -23.83171  eV     1   --> A              
     e( 15 - 15) =     -4.27233  eV     1   --> A              
     e( 16 - 16) =     -2.84612  eV     1   --> A              
     e( 17 - 17) =      4.41921  eV     1   --> A              
     e( 18 - 18) =      7.22990  eV     1   --> A              
     e( 19 - 19) =      7.30439  eV     1   --> A              
     e( 20 - 20) =      9.69945  eV     1   --> A              
     e( 21 - 21) =      9.82017  eV     1   --> A              
     e( 22 - 22) =      9.91411  eV     1   --> A              
     e( 23 - 23) =     10.24134  eV     1   --> A              
     e( 24 - 24) =     10.43049  eV     1   --> A              
     e( 25 - 25) =     10.50243  eV     1   --> A              
     e( 26 - 26) =     13.03549  eV     1   --> A              
     e( 27 - 27) =     13.13457  eV     1   --> A              
     e( 28 - 28) =     15.48828  eV     1   --> A              
     e( 29 - 29) =     15.50892  eV     1   --> A              
     e( 30 - 30) =     18.99010  eV     1   --> A              
     e( 31 - 31) =     19.20357  eV     1   --> A              
     e( 32 - 32) =     20.76509  eV     1   --> A              
     e( 33 - 33) =     21.59129  eV     1   --> A              
     e( 34 - 34) =     22.19093  eV     1   --> A              
     e( 35 - 35) =     22.22161  eV     1   --> A              
     e( 36 - 36) =     22.59899  eV     1   --> A              
     e( 37 - 37) =     23.00669  eV     1   --> A              
     e( 38 - 38) =     23.35998  eV     1   --> A              
     e( 39 - 39) =     24.41298  eV     1   --> A              
     e( 40 - 40) =     24.56933  eV     1   --> A              

 **************************************************************************

 **************************************************************************

                    xk=(   0.05674,   0.01517,   0.00032  )

     Band symmetry, C_1 (1)     point group:

     e(  1 -  1) =    -47.29639  eV     1   --> A              
     e(  2 -  3) =    -37.79060  eV     2   -->   2 A              
     e(  4 -  4) =    -37.79013  eV     1   --> A              
     e(  5 -  5) =    -37.78971  eV     1   --> A              
     e(  6 -  6) =    -37.77542  eV     1   --> A              
     e(  7 -  7) =    -37.77527  eV     1   --> A              
     e(  8 -  8) =    -37.77487  eV     1   --> A              
     e(  9 -  9) =    -37.77441  eV     1   --> A              
     e( 10 - 10) =    -37.76541  eV     1   --> A              
     e( 11 - 11) =    -37.76283  eV     1   --> A              
     e( 12 - 12) =    -23.84945  eV     1   --> A              
     e( 13 - 13) =    -23.83438  eV     1   --> A              
     e( 14 - 14) =    -23.83177  eV     1   --> A              
     e( 15 - 15) =     -4.26912  eV     1   --> A              
     e( 16 - 16) =     -2.84514  eV     1   --> A              
     e( 17 - 17) =      4.42349  eV     1   --> A              
     e( 18 - 18) =      7.22215  eV     1   --> A              
     e( 19 - 19) =      7.30544  eV     1   --> A              
     e( 20 - 20) =      9.66585  eV     1   --> A              
     e( 21 - 21) =      9.80052  eV     1   --> A              
     e( 22 - 22) =      9.91440  eV     1   --> A              
     e( 23 - 23) =     10.24100  eV     1   --> A              
     e( 24 - 24) =     10.44767  eV     1   --> A              
     e( 25 - 25) =     10.51460  eV     1   --> A              
     e( 26 - 26) =     13.02286  eV     1   --> A              
     e( 27 - 27) =     13.13270  eV     1   --> A              
     e( 28 - 28) =     15.50861  eV     1   --> A              
     e( 29 - 29) =     15.53427  eV     1   --> A              
     e( 30 - 30) =     18.97840  eV     1   --> A              
     e( 31 - 31) =     19.21684  eV     1   --> A              
     e( 32 - 32) =     20.76856  eV     1   --> A              
     e( 33 - 33) =     21.54918  eV     1   --> A              
     e( 34 - 34) =     22.16516  eV     1   --> A              
     e( 35 - 35) =     22.19684  eV     1   --> A              
     e( 36 - 36) =     22.59323  eV     1   --> A              
     e( 37 - 37) =     22.96753  eV     1   --> A              
     e( 38 - 38) =     23.38346  eV     1   --> A              
     e( 39 - 39) =     24.44617  eV     1   --> A              
     e( 40 - 40) =     24.61235  eV     1   --> A              

 **************************************************************************

 **************************************************************************

                    xk=(   0.06007,   0.01606,   0.00034  )

     Band symmetry, C_1 (1)     point group:

     e(  1 -  1) =    -47.29637  eV     1   --> A              
     e(  2 -  3) =    -37.79059  eV     2   -->   2 A              
     e(  4 -  4) =    -37.79016  eV     1   --> A              
     e(  5 -  5) =    -37.78986  eV     1   --> A              
     e(  6 -  6) =    -37.77543  eV     1   --> A              
     e(  7 -  8) =    -37.77527  eV     2   -->   2 A              
     e(  9 -  9) =    -37.77445  eV     1   --> A              
     e( 10 - 10) =    -37.76550  eV     1   --> A              
     e( 11 - 11) =    -37.76301  eV     1   --> A              
     e( 12 - 12) =    -23.84939  eV     1   --> A              
     e( 13 - 13) =    -23.83466  eV     1   --> A              
     e( 14 - 14) =    -23.83184  eV     1   --> A              
     e( 15 - 15) =     -4.26573  eV     1   --> A              
     e( 16 - 16) =     -2.84410  eV     1   --> A              
     e( 17 - 17) =      4.42801  eV     1   --> A              
     e( 18 - 18) =      7.21398  eV     1   --> A              
     e( 19 - 19) =      7.30654  eV     1   --> A              
     e( 20 - 20) =      9.63155  eV     1   --> A              
     e( 21 - 21) =      9.78086  eV     1   --> A              
     e( 22 - 22) =      9.91458  eV     1   --> A              
     e( 23 - 23) =     10.24029  eV     1   --> A              
     e( 24 - 24) =     10.46468  eV     1   --> A              
     e( 25 - 25) =     10.52652  eV     1   --> A              
     e( 26 - 26) =     13.00991  eV     1   --> A              
     e( 27 - 27) =     13.13071  eV     1   --> A              
     e( 28 - 28) =     15.52931  eV     1   --> A              
     e( 29 - 29) =     15.56127  eV     1   --> A              
     e( 30 - 30) =     18.96617  eV     1   --> A              
     e( 31 - 31) =     19.23072  eV     1   --> A              
     e( 32 - 32) =     20.77211  eV     1   --> A              
     e( 33 - 33) =     21.50699  eV     1   --> A              
     e( 34 - 34) =     22.10677  eV     1   --> A              
     e( 35 - 35) =     22.20302  eV     1   --> A              
     e( 36 - 36) =     22.58598  eV     1   --> A              
     e( 37 - 37) =     22.92795  eV     1   --> A              
     e( 38 - 38) =     23.40943  eV     1   --> A              
     e( 39 - 39) =     24.48045  eV     1   --> A              
     e( 40 - 40) =     24.65557  eV     1   --> A              

 **************************************************************************

 **************************************************************************

                    xk=(   0.06341,   0.01695,   0.00036  )

     Band symmetry, C_1 (1)     point group:

     e(  1 -  1) =    -47.29635  eV     1   --> A              
     e(  2 -  3) =    -37.79064  eV     2   -->   2 A              
     e(  4 -  4) =    -37.79019  eV     1   --> A              
     e(  5 -  5) =    -37.78987  eV     1   --> A              
     e(  6 -  6) =    -37.77555  eV     1   --> A              
     e(  7 -  8) =    -37.77531  eV     2   -->   2 A              
     e(  9 -  9) =    -37.77460  eV     1   --> A              
     e( 10 - 10) =    -37.76553  eV     1   --> A              
     e( 11 - 11) =    -37.76306  eV     1   --> A              
     e( 12 - 12) =    -23.84932  eV     1   --> A              
     e( 13 - 13) =    -23.83496  eV     1   --> A              
     e( 14 - 14) =    -23.83192  eV     1   --> A              
     e( 15 - 15) =     -4.26214  eV     1   --> A              
     e( 16 - 16) =     -2.84300  eV     1   --> A              
     e( 17 - 17) =      4.43280  eV     1   --> A              
     e( 18 - 18) =      7.20541  eV     1   --> A              
     e( 19 - 19) =      7.30772  eV     1   --> A              
     e( 20 - 20) =      9.59662  eV     1   --> A              
     e( 21 - 21) =      9.76118  eV     1   --> A              
     e( 22 - 22) =      9.91465  eV     1   --> A              
     e( 23 - 23) =     10.23942  eV     1   --> A              
     e( 24 - 24) =     10.48151  eV     1   --> A              
     e( 25 - 25) =     10.53828  eV     1   --> A              
     e( 26 - 26) =     12.99672  eV     1   --> A              
     e( 27 - 27) =     13.12869  eV     1   --> A              
     e( 28 - 28) =     15.55062  eV     1   --> A              
     e( 29 - 29) =     15.58965  eV     1   --> A              
     e( 30 - 30) =     18.95357  eV     1   --> A              
     e( 31 - 31) =     19.24541  eV     1   --> A              
     e( 32 - 32) =     20.77583  eV     1   --> A              
     e( 33 - 33) =     21.46485  eV     1   --> A              
     e( 34 - 34) =     22.04681  eV     1   --> A              
     e( 35 - 35) =     22.20948  eV     1   --> A              
     e( 36 - 36) =     22.57740  eV     1   --> A              
     e( 37 - 37) =     22.88835  eV     1   --> A              
     e( 38 - 38) =     23.43743  eV     1   --> A              
     e( 39 - 39) =     24.51641  eV     1   --> A              
     e( 40 - 40) =     24.69912  eV     1   --> A              

 **************************************************************************

 **************************************************************************

                    xk=(   0.06675,   0.01784,   0.00038  )

     Band symmetry, C_1 (1)     point group:

     e(  1 -  1) =    -47.29633  eV     1   --> A              
     e(  2 -  3) =    -37.79065  eV     2   -->   2 A              
     e(  4 -  4) =    -37.79024  eV     1   --> A              
     e(  5 -  5) =    -37.78992  eV     1   --> A              
     e(  6 -  6) =    -37.77554  eV     1   --> A              
     e(  7 -  8) =    -37.77534  eV     2   -->   2 A              
     e(  9 -  9) =    -37.77464  eV     1   --> A              
     e( 10 - 10) =    -37.76553  eV     1   --> A              
     e( 11 - 11) =    -37.76305  eV     1   --> A              
     e( 12 - 12) =    -23.84924  eV     1   --> A              
     e( 13 - 13) =    -23.83528  eV     1   --> A              
     e( 14 - 14) =    -23.83199  eV     1   --> A              
     e( 15 - 15) =     -4.25836  eV     1   --> A              
     e( 16 - 16) =     -2.84185  eV     1   --> A              
     e( 17 - 17) =      4.43785  eV     1   --> A              
     e( 18 - 18) =      7.19644  eV     1   --> A              
     e( 19 - 19) =      7.30893  eV     1   --> A              
     e( 20 - 20) =      9.56107  eV     1   --> A              
     e( 21 - 21) =      9.74153  eV     1   --> A              
     e( 22 - 22) =      9.91457  eV     1   --> A              
     e( 23 - 23) =     10.23835  eV     1   --> A              
     e( 24 - 24) =     10.49818  eV     1   --> A              
     e( 25 - 25) =     10.54988  eV     1   --> A              
     e( 26 - 26) =     12.98333  eV     1   --> A              
     e( 27 - 27) =     13.12655  eV     1   --> A              
     e( 28 - 28) =     15.57262  eV     1   --> A              
     e( 29 - 29) =     15.61921  eV     1   --> A              
     e( 30 - 30) =     18.94056  eV     1   --> A              
     e( 31 - 31) =     19.26088  eV     1   --> A              
     e( 32 - 32) =     20.77970  eV     1   --> A              
     e( 33 - 33) =     21.42281  eV     1   --> A              
     e( 34 - 34) =     21.98583  eV     1   --> A              
     e( 35 - 35) =     22.21622  eV     1   --> A              
     e( 36 - 36) =     22.56772  eV     1   --> A              
     e( 37 - 37) =     22.84879  eV     1   --> A              
     e( 38 - 38) =     23.46722  eV     1   --> A              
     e( 39 - 39) =     24.55380  eV     1   --> A              
     e( 40 - 40) =     24.74307  eV     1   --> A              

 **************************************************************************

 **************************************************************************

                    xk=(   0.07009,   0.01873,   0.00040  )

     Band symmetry, C_1 (1)     point group:

     e(  1 -  1) =    -47.29630  eV     1   --> A              
     e(  2 -  3) =    -37.79063  eV     2   -->   2 A              
     e(  4 -  4) =    -37.79025  eV     1   --> A              
     e(  5 -  5) =    -37.78993  eV     1   --> A              
     e(  6 -  6) =    -37.77557  eV     1   --> A              
     e(  7 -  8) =    -37.77537  eV     2   -->   2 A              
     e(  9 -  9) =    -37.77482  eV     1   --> A              
     e( 10 - 10) =    -37.76552  eV     1   --> A              
     e( 11 - 11) =    -37.76304  eV     1   --> A              
     e( 12 - 12) =    -23.84917  eV     1   --> A              
     e( 13 - 13) =    -23.83561  eV     1   --> A              
     e( 14 - 14) =    -23.83207  eV     1   --> A              
     e( 15 - 15) =     -4.25440  eV     1   --> A              
     e( 16 - 16) =     -2.84064  eV     1   --> A              
     e( 17 - 17) =      4.44315  eV     1   --> A              
     e( 18 - 18) =      7.18710  eV     1   --> A              
     e( 19 - 19) =      7.31022  eV     1   --> A              
     e( 20 - 20) =      9.52492  eV     1   --> A              
     e( 21 - 21) =      9.72187  eV     1   --> A              
     e( 22 - 22) =      9.91432  eV     1   --> A              
     e( 23 - 23) =     10.23707  eV     1   --> A              
     e( 24 - 24) =     10.51466  eV     1   --> A              
     e( 25 - 25) =     10.56126  eV     1   --> A              
     e( 26 - 26) =     12.96982  eV     1   --> A              
     e( 27 - 27) =     13.12441  eV     1   --> A              
     e( 28 - 28) =     15.59534  eV     1   --> A              
     e( 29 - 29) =     15.64983  eV     1   --> A              
     e( 30 - 30) =     18.92725  eV     1   --> A              
     e( 31 - 31) =     19.27706  eV     1   --> A              
     e( 32 - 32) =     20.78364  eV     1   --> A              
     e( 33 - 33) =     21.38091  eV     1   --> A              
     e( 34 - 34) =     21.92388  eV     1   --> A              
     e( 35 - 35) =     22.22317  eV     1   --> A              
     e( 36 - 36) =     22.55703  eV     1   --> A              
     e( 37 - 37) =     22.80945  eV     1   --> A              
     e( 38 - 38) =     23.49838  eV     1   --> A              
     e( 39 - 39) =     24.59248  eV     1   --> A              
     e( 40 - 40) =     24.78717  eV     1   --> A              

 **************************************************************************

 **************************************************************************

                    xk=(   0.07342,   0.01963,   0.00041  )

     Band symmetry, C_1 (1)     point group:

     e(  1 -  1) =    -47.29628  eV     1   --> A              
     e(  2 -  2) =    -37.79068  eV     1   --> A              
     e(  3 -  3) =    -37.79058  eV     1   --> A              
     e(  4 -  4) =    -37.79025  eV     1   --> A              
     e(  5 -  5) =    -37.78996  eV     1   --> A              
     e(  6 -  6) =    -37.77557  eV     1   --> A              
     e(  7 -  8) =    -37.77541  eV     2   -->   2 A              
     e(  9 -  9) =    -37.77488  eV     1   --> A              
     e( 10 - 10) =    -37.76553  eV     1   --> A              
     e( 11 - 11) =    -37.76304  eV     1   --> A              
     e( 12 - 12) =    -23.84909  eV     1   --> A              
     e( 13 - 13) =    -23.83595  eV     1   --> A              
     e( 14 - 14) =    -23.83216  eV     1   --> A              
     e( 15 - 15) =     -4.25024  eV     1   --> A              
     e( 16 - 16) =     -2.83938  eV     1   --> A              
     e( 17 - 17) =      4.44870  eV     1   --> A              
     e( 18 - 18) =      7.17739  eV     1   --> A              
     e( 19 - 19) =      7.31157  eV     1   --> A              
     e( 20 - 20) =      9.48819  eV     1   --> A              
     e( 21 - 21) =      9.70224  eV     1   --> A              
     e( 22 - 22) =      9.91389  eV     1   --> A              
     e( 23 - 23) =     10.23562  eV     1   --> A              
     e( 24 - 24) =     10.53097  eV     1   --> A              
     e( 25 - 25) =     10.57243  eV     1   --> A              
     e( 26 - 26) =     12.95624  eV     1   --> A              
     e( 27 - 27) =     13.12223  eV     1   --> A              
     e( 28 - 28) =     15.61879  eV     1   --> A              
     e( 29 - 29) =     15.68139  eV     1   --> A              
     e( 30 - 30) =     18.91362  eV     1   --> A              
     e( 31 - 31) =     19.29406  eV     1   --> A              
     e( 32 - 32) =     20.78760  eV     1   --> A              
     e( 33 - 33) =     21.33921  eV     1   --> A              
     e( 34 - 34) =     21.86121  eV     1   --> A              
     e( 35 - 35) =     22.23032  eV     1   --> A              
     e( 36 - 36) =     22.54542  eV     1   --> A              
     e( 37 - 37) =     22.77030  eV     1   --> A              
     e( 38 - 38) =     23.53067  eV     1   --> A              
     e( 39 - 39) =     24.63255  eV     1   --> A              
     e( 40 - 40) =     24.83125  eV     1   --> A              

 **************************************************************************

 **************************************************************************

                    xk=(   0.07676,   0.02052,   0.00043  )

     Band symmetry, C_1 (1)     point group:

     e(  1 -  1) =    -47.29625  eV     1   --> A              
     e(  2 -  2) =    -37.79067  eV     1   --> A              
     e(  3 -  3) =    -37.79056  eV     1   --> A              
     e(  4 -  4) =    -37.79025  eV     1   --> A              
     e(  5 -  5) =    -37.78994  eV     1   --> A              
     e(  6 -  6) =    -37.77574  eV     1   --> A              
     e(  7 -  8) =    -37.77542  eV     2   -->   2 A              
     e(  9 -  9) =    -37.77488  eV     1   --> A              
     e( 10 - 10) =    -37.76561  eV     1   --> A              
     e( 11 - 11) =    -37.76333  eV     1   --> A              
     e( 12 - 12) =    -23.84901  eV     1   --> A              
     e( 13 - 13) =    -23.83632  eV     1   --> A              
     e( 14 - 14) =    -23.83224  eV     1   --> A              
     e( 15 - 15) =     -4.24590  eV     1   --> A              
     e( 16 - 16) =     -2.83806  eV     1   --> A              
     e( 17 - 17) =      4.45451  eV     1   --> A              
     e( 18 - 18) =      7.16731  eV     1   --> A              
     e( 19 - 19) =      7.31298  eV     1   --> A              
     e( 20 - 20) =      9.45089  eV     1   --> A              
     e( 21 - 21) =      9.68264  eV     1   --> A              
     e( 22 - 22) =      9.91325  eV     1   --> A              
     e( 23 - 23) =     10.23395  eV     1   --> A              
     e( 24 - 24) =     10.54710  eV     1   --> A              
     e( 25 - 25) =     10.58331  eV     1   --> A              
     e( 26 - 26) =     12.94263  eV     1   --> A              
     e( 27 - 27) =     13.12000  eV     1   --> A              
     e( 28 - 28) =     15.64293  eV     1   --> A              
     e( 29 - 29) =     15.71377  eV     1   --> A              
     e( 30 - 30) =     18.89976  eV     1   --> A              
     e( 31 - 31) =     19.31177  eV     1   --> A              
     e( 32 - 32) =     20.79126  eV     1   --> A              
     e( 33 - 33) =     21.29774  eV     1   --> A              
     e( 34 - 34) =     21.79791  eV     1   --> A              
     e( 35 - 35) =     22.23763  eV     1   --> A              
     e( 36 - 36) =     22.53300  eV     1   --> A              
     e( 37 - 37) =     22.73156  eV     1   --> A              
     e( 38 - 38) =     23.56370  eV     1   --> A              
     e( 39 - 39) =     24.67389  eV     1   --> A              
     e( 40 - 40) =     24.87587  eV     1   --> A              

 **************************************************************************

 **************************************************************************

                    xk=(   0.08010,   0.02141,   0.00045  )

     Band symmetry, C_1 (1)     point group:

     e(  1 -  1) =    -47.29622  eV     1   --> A              
     e(  2 -  2) =    -37.79065  eV     1   --> A              
     e(  3 -  3) =    -37.79050  eV     1   --> A              
     e(  4 -  4) =    -37.79019  eV     1   --> A              
     e(  5 -  5) =    -37.78992  eV     1   --> A              
     e(  6 -  6) =    -37.77573  eV     1   --> A              
     e(  7 -  7) =    -37.77540  eV     1   --> A              
     e(  8 -  8) =    -37.77523  eV     1   --> A              
     e(  9 -  9) =    -37.77489  eV     1   --> A              
     e( 10 - 10) =    -37.76560  eV     1   --> A              
     e( 11 - 11) =    -37.76328  eV     1   --> A              
     e( 12 - 12) =    -23.84892  eV     1   --> A              
     e( 13 - 13) =    -23.83669  eV     1   --> A              
     e( 14 - 14) =    -23.83233  eV     1   --> A              
     e( 15 - 15) =     -4.24137  eV     1   --> A              
     e( 16 - 16) =     -2.83668  eV     1   --> A              
     e( 17 - 17) =      4.46057  eV     1   --> A              
     e( 18 - 18) =      7.15689  eV     1   --> A              
     e( 19 - 19) =      7.31444  eV     1   --> A              
     e( 20 - 20) =      9.41305  eV     1   --> A              
     e( 21 - 21) =      9.66307  eV     1   --> A              
     e( 22 - 22) =      9.91239  eV     1   --> A              
     e( 23 - 23) =     10.23218  eV     1   --> A              
     e( 24 - 24) =     10.56304  eV     1   --> A              
     e( 25 - 25) =     10.59407  eV     1   --> A              
     e( 26 - 26) =     12.92906  eV     1   --> A              
     e( 27 - 27) =     13.11775  eV     1   --> A              
     e( 28 - 28) =     15.66776  eV     1   --> A              
     e( 29 - 29) =     15.74700  eV     1   --> A              
     e( 30 - 30) =     18.88576  eV     1   --> A              
     e( 31 - 31) =     19.33021  eV     1   --> A              
     e( 32 - 32) =     20.79508  eV     1   --> A              
     e( 33 - 33) =     21.25695  eV     1   --> A              
     e( 34 - 34) =     21.73433  eV     1   --> A              
     e( 35 - 35) =     22.24502  eV     1   --> A              
     e( 36 - 36) =     22.51983  eV     1   --> A              
     e( 37 - 37) =     22.69332  eV     1   --> A              
     e( 38 - 38) =     23.59772  eV     1   --> A              
     e( 39 - 39) =     24.71663  eV     1   --> A              
     e( 40 - 40) =     24.92063  eV     1   --> A              

 **************************************************************************

 **************************************************************************

                    xk=(   0.08344,   0.02230,   0.00047  )

     Band symmetry, C_1 (1)     point group:

     e(  1 -  1) =    -47.29619  eV     1   --> A              
     e(  2 -  2) =    -37.79064  eV     1   --> A              
     e(  3 -  3) =    -37.79048  eV     1   --> A              
     e(  4 -  4) =    -37.79018  eV     1   --> A              
     e(  5 -  5) =    -37.78990  eV     1   --> A              
     e(  6 -  6) =    -37.77573  eV     1   --> A              
     e(  7 -  7) =    -37.77540  eV     1   --> A              
     e(  8 -  8) =    -37.77522  eV     1   --> A              
     e(  9 -  9) =    -37.77489  eV     1   --> A              
     e( 10 - 10) =    -37.76559  eV     1   --> A              
     e( 11 - 11) =    -37.76327  eV     1   --> A              
     e( 12 - 12) =    -23.84883  eV     1   --> A              
     e( 13 - 13) =    -23.83709  eV     1   --> A              
     e( 14 - 14) =    -23.83242  eV     1   --> A              
     e( 15 - 15) =     -4.23665  eV     1   --> A              
     e( 16 - 16) =     -2.83525  eV     1   --> A              
     e( 17 - 17) =      4.46689  eV     1   --> A              
     e( 18 - 18) =      7.14614  eV     1   --> A              
     e( 19 - 19) =      7.31596  eV     1   --> A              
     e( 20 - 20) =      9.37469  eV     1   --> A              
     e( 21 - 21) =      9.64353  eV     1   --> A              
     e( 22 - 22) =      9.91127  eV     1   --> A              
     e( 23 - 23) =     10.23028  eV     1   --> A              
     e( 24 - 24) =     10.57877  eV     1   --> A              
     e( 25 - 25) =     10.60462  eV     1   --> A              
     e( 26 - 26) =     12.91557  eV     1   --> A              
     e( 27 - 27) =     13.11547  eV     1   --> A              
     e( 28 - 28) =     15.69323  eV     1   --> A              
     e( 29 - 29) =     15.78096  eV     1   --> A              
     e( 30 - 30) =     18.87153  eV     1   --> A              
     e( 31 - 31) =     19.34933  eV     1   --> A              
     e( 32 - 32) =     20.79862  eV     1   --> A              
     e( 33 - 33) =     21.21641  eV     1   --> A              
     e( 34 - 34) =     21.67052  eV     1   --> A              
     e( 35 - 35) =     22.25231  eV     1   --> A              
     e( 36 - 36) =     22.50594  eV     1   --> A              
     e( 37 - 37) =     22.65571  eV     1   --> A              
     e( 38 - 38) =     23.63217  eV     1   --> A              
     e( 39 - 39) =     24.76042  eV     1   --> A              
     e( 40 - 40) =     24.96552  eV     1   --> A              

 **************************************************************************

 **************************************************************************

                    xk=(   0.08677,   0.02320,   0.00049  )

     Band symmetry, C_1 (1)     point group:

     e(  1 -  1) =    -47.29615  eV     1   --> A              
     e(  2 -  2) =    -37.79057  eV     1   --> A              
     e(  3 -  3) =    -37.79042  eV     1   --> A              
     e(  4 -  5) =    -37.78996  eV     2   -->   2 A              
     e(  6 -  6) =    -37.77572  eV     1   --> A              
     e(  7 -  7) =    -37.77538  eV     1   --> A              
     e(  8 -  8) =    -37.77506  eV     1   --> A              
     e(  9 -  9) =    -37.77489  eV     1   --> A              
     e( 10 - 10) =    -37.76557  eV     1   --> A              
     e( 11 - 11) =    -37.76320  eV     1   --> A              
     e( 12 - 12) =    -23.84874  eV     1   --> A              
     e( 13 - 13) =    -23.83750  eV     1   --> A              
     e( 14 - 14) =    -23.83251  eV     1   --> A              
     e( 15 - 15) =     -4.23175  eV     1   --> A              
     e( 16 - 16) =     -2.83376  eV     1   --> A              
     e( 17 - 17) =      4.47345  eV     1   --> A              
     e( 18 - 18) =      7.13506  eV     1   --> A              
     e( 19 - 19) =      7.31753  eV     1   --> A              
     e( 20 - 20) =      9.33584  eV     1   --> A              
     e( 21 - 21) =      9.62403  eV     1   --> A              
     e( 22 - 22) =      9.90987  eV     1   --> A              
     e( 23 - 23) =     10.22824  eV     1   --> A              
     e( 24 - 24) =     10.59431  eV     1   --> A              
     e( 25 - 25) =     10.61498  eV     1   --> A              
     e( 26 - 26) =     12.90219  eV     1   --> A              
     e( 27 - 27) =     13.11318  eV     1   --> A              
     e( 28 - 28) =     15.71933  eV     1   --> A              
     e( 29 - 29) =     15.81558  eV     1   --> A              
     e( 30 - 30) =     18.85727  eV     1   --> A              
     e( 31 - 31) =     19.36916  eV     1   --> A              
     e( 32 - 32) =     20.80174  eV     1   --> A              
     e( 33 - 33) =     21.17683  eV     1   --> A              
     e( 34 - 34) =     21.60668  eV     1   --> A              
     e( 35 - 35) =     22.25942  eV     1   --> A              
     e( 36 - 36) =     22.49150  eV     1   --> A              
     e( 37 - 37) =     22.61900  eV     1   --> A              
     e( 38 - 38) =     23.66715  eV     1   --> A              
     e( 39 - 39) =     24.80551  eV     1   --> A              
     e( 40 - 40) =     25.01051  eV     1   --> A              

 **************************************************************************

 **************************************************************************

                    xk=(   0.09011,   0.02409,   0.00051  )

     Band symmetry, C_1 (1)     point group:

     e(  1 -  1) =    -47.29612  eV     1   --> A              
     e(  2 -  2) =    -37.79054  eV     1   --> A              
     e(  3 -  3) =    -37.79040  eV     1   --> A              
     e(  4 -  4) =    -37.78998  eV     1   --> A              
     e(  5 -  5) =    -37.78980  eV     1   --> A              
     e(  6 -  6) =    -37.77576  eV     1   --> A              
     e(  7 -  7) =    -37.77537  eV     1   --> A              
     e(  8 -  8) =    -37.77509  eV     1   --> A              
     e(  9 -  9) =    -37.77491  eV     1   --> A              
     e( 10 - 10) =    -37.76560  eV     1   --> A              
     e( 11 - 11) =    -37.76338  eV     1   --> A              
     e( 12 - 12) =    -23.84864  eV     1   --> A              
     e( 13 - 13) =    -23.83792  eV     1   --> A              
     e( 14 - 14) =    -23.83261  eV     1   --> A              
     e( 15 - 15) =     -4.22666  eV     1   --> A              
     e( 16 - 16) =     -2.83223  eV     1   --> A              
     e( 17 - 17) =      4.48027  eV     1   --> A              
     e( 18 - 18) =      7.12367  eV     1   --> A              
     e( 19 - 19) =      7.31914  eV     1   --> A              
     e( 20 - 20) =      9.29649  eV     1   --> A              
     e( 21 - 21) =      9.60457  eV     1   --> A              
     e( 22 - 22) =      9.90818  eV     1   --> A              
     e( 23 - 23) =     10.22607  eV     1   --> A              
     e( 24 - 24) =     10.60963  eV     1   --> A              
     e( 25 - 25) =     10.62514  eV     1   --> A              
     e( 26 - 26) =     12.88897  eV     1   --> A              
     e( 27 - 27) =     13.11083  eV     1   --> A              
     e( 28 - 28) =     15.74601  eV     1   --> A              
     e( 29 - 29) =     15.85077  eV     1   --> A              
     e( 30 - 30) =     18.84289  eV     1   --> A              
     e( 31 - 31) =     19.38952  eV     1   --> A              
     e( 32 - 32) =     20.80365  eV     1   --> A              
     e( 33 - 33) =     21.13787  eV     1   --> A              
[...]
     e(  7 -  8) =    -37.77258  eV     2   --> B              
     e(  9 -  9) =    -37.77222  eV     1   --> B              
     e( 10 - 10) =    -37.76436  eV     1   --> B              
     e( 11 - 11) =    -37.76419  eV     1   --> A              
     e( 12 - 12) =    -23.85000  eV     1   --> B              
     e( 13 - 13) =    -23.83245  eV     1   --> A              
     e( 14 - 14) =    -23.83111  eV     1   --> B              
     e( 15 - 15) =     -3.94746  eV     1   --> A              
     e( 16 - 16) =     -3.36724  eV     1   --> B              
     e( 17 - 17) =      5.90764  eV     1   --> A              
     e( 18 - 18) =      7.12354  eV     1   --> B              
     e( 19 - 19) =      7.34844  eV     1   --> A              
     e( 20 - 20) =      7.41497  eV     1   --> B              
     e( 21 - 21) =      9.86921  eV     1   --> A              
     e( 22 - 22) =      9.89372  eV     1   --> B              
     e( 23 - 23) =     10.15505  eV     1   --> A              
     e( 24 - 24) =     10.15882  eV     1   --> B              
     e( 25 - 25) =     10.95457  eV     1   --> A              
     e( 26 - 26) =     13.42087  eV     1   --> B              
     e( 27 - 27) =     13.45092  eV     1   --> A              
     e( 28 - 28) =     15.75372  eV     1   --> B              
     e( 29 - 29) =     17.15698  eV     1   --> A              
     e( 30 - 30) =     19.02547  eV     1   --> A              
     e( 31 - 31) =     19.09238  eV     1   --> B              
     e( 32 - 32) =     19.35075  eV     1   --> B              
     e( 33 - 33) =     20.60455  eV     1   --> A              
     e( 34 - 34) =     20.93447  eV     1   --> B              
     e( 35 - 35) =     20.96694  eV     1   --> A              
     e( 36 - 36) =     22.89691  eV     1   --> B              
     e( 37 - 37) =     24.44349  eV     1   --> B              
     e( 38 - 38) =     24.45240  eV     1   --> A              
     e( 39 - 39) =     24.88626  eV     1   --> A              
     e( 40 - 40) =     25.96574  eV     1   --> B              

 **************************************************************************

 **************************************************************************

                    xk=(   0.01035,   0.01405,   0.29464  )

     Band symmetry, C_2  (2)    point group:

     e(  1 -  1) =    -47.29647  eV     1   --> A              
     e(  2 -  2) =    -37.78941  eV     1   --> A              
     e(  3 -  3) =    -37.78908  eV     1   --> B              
     e(  4 -  5) =    -37.78852  eV     2   --> A              
     e(  4 -  5) =    -37.78852  eV     2   --> B              
     e(  6 -  7) =    -37.77254  eV     2   -->   2 A              
     e(  8 -  8) =    -37.77234  eV     1   --> B              
     e(  9 -  9) =    -37.77211  eV     1   --> B              
     e( 10 - 11) =    -37.76413  eV     2   --> A              
     e( 10 - 11) =    -37.76413  eV     2   --> B              
     e( 12 - 12) =    -23.85002  eV     1   --> B              
     e( 13 - 13) =    -23.83236  eV     1   --> A              
     e( 14 - 14) =    -23.83109  eV     1   --> B              
     e( 15 - 15) =     -3.94848  eV     1   --> A              
     e( 16 - 16) =     -3.36778  eV     1   --> B              
     e( 17 - 17) =      5.90661  eV     1   --> A              
     e( 18 - 18) =      7.14236  eV     1   --> B              
     e( 19 - 19) =      7.34812  eV     1   --> A              
     e( 20 - 20) =      7.39659  eV     1   --> B              
     e( 21 - 21) =      9.89286  eV     1   --> A              
     e( 22 - 22) =      9.91175  eV     1   --> B              
     e( 23 - 23) =     10.14175  eV     1   --> A              
     e( 24 - 24) =     10.14218  eV     1   --> B              
     e( 25 - 25) =     10.94861  eV     1   --> A              
     e( 26 - 26) =     13.42898  eV     1   --> B              
     e( 27 - 27) =     13.45278  eV     1   --> A              
     e( 28 - 28) =     15.74459  eV     1   --> B              
     e( 29 - 29) =     17.15168  eV     1   --> A              
     e( 30 - 30) =     19.03136  eV     1   --> A              
     e( 31 - 31) =     19.08794  eV     1   --> B              
     e( 32 - 32) =     19.35619  eV     1   --> B              
     e( 33 - 33) =     20.60559  eV     1   --> A              
     e( 34 - 34) =     20.93745  eV     1   --> B              
     e( 35 - 35) =     20.96546  eV     1   --> A              
     e( 36 - 36) =     22.88583  eV     1   --> B              
     e( 37 - 37) =     24.44579  eV     1   --> B              
     e( 38 - 38) =     24.45813  eV     1   --> A              
     e( 39 - 39) =     24.87313  eV     1   --> A              
     e( 40 - 40) =     25.97627  eV     1   --> B              

 **************************************************************************

 **************************************************************************

                    xk=(   0.00791,   0.01161,   0.29464  )

     Band symmetry, C_2  (2)    point group:

     e(  1 -  1) =    -47.29648  eV     1   --> A              
     e(  2 -  2) =    -37.78941  eV     1   --> A              
     e(  3 -  3) =    -37.78908  eV     1   --> B              
     e(  4 -  5) =    -37.78852  eV     2   --> A              
     e(  4 -  5) =    -37.78852  eV     2   --> B              
     e(  6 -  7) =    -37.77254  eV     2   -->   2 A              
     e(  8 -  8) =    -37.77234  eV     1   --> B              
     e(  9 -  9) =    -37.77210  eV     1   --> B              
     e( 10 - 11) =    -37.76413  eV     2   --> A              
     e( 10 - 11) =    -37.76413  eV     2   --> B              
     e( 12 - 12) =    -23.85004  eV     1   --> B              
     e( 13 - 13) =    -23.83228  eV     1   --> A              
     e( 14 - 14) =    -23.83107  eV     1   --> B              
     e( 15 - 15) =     -3.94932  eV     1   --> A              
     e( 16 - 16) =     -3.36822  eV     1   --> B              
     e( 17 - 17) =      5.90576  eV     1   --> A              
     e( 18 - 18) =      7.16011  eV     1   --> B              
     e( 19 - 19) =      7.34786  eV     1   --> A              
     e( 20 - 20) =      7.37919  eV     1   --> B              
     e( 21 - 21) =      9.91465  eV     1   --> A              
     e( 22 - 22) =      9.92872  eV     1   --> B              
     e( 23 - 23) =     10.12629  eV     1   --> B              
     e( 24 - 24) =     10.12843  eV     1   --> A              
     e( 25 - 25) =     10.94359  eV     1   --> A              
     e( 26 - 26) =     13.43564  eV     1   --> B              
     e( 27 - 27) =     13.45427  eV     1   --> A              
     e( 28 - 28) =     15.73694  eV     1   --> B              
     e( 29 - 29) =     17.14732  eV     1   --> A              
     e( 30 - 30) =     19.03609  eV     1   --> A              
     e( 31 - 31) =     19.08420  eV     1   --> B              
     e( 32 - 32) =     19.36068  eV     1   --> B              
     e( 33 - 33) =     20.60637  eV     1   --> A              
     e( 34 - 34) =     20.93990  eV     1   --> B              
     e( 35 - 35) =     20.96419  eV     1   --> A              
     e( 36 - 36) =     22.87665  eV     1   --> B              
     e( 37 - 37) =     24.44726  eV     1   --> B              
     e( 38 - 38) =     24.46233  eV     1   --> A              
     e( 39 - 39) =     24.86208  eV     1   --> A              
     e( 40 - 40) =     25.98418  eV     1   --> B              

 **************************************************************************

 **************************************************************************

                    xk=(   0.00547,   0.00917,   0.29464  )

     Band symmetry, C_2  (2)    point group:

     e(  1 -  1) =    -47.29648  eV     1   --> A              
     e(  2 -  2) =    -37.78915  eV     1   --> A              
     e(  3 -  3) =    -37.78895  eV     1   --> B              
     e(  4 -  4) =    -37.78866  eV     1   --> B              
     e(  5 -  5) =    -37.78853  eV     1   --> A              
     e(  6 -  6) =    -37.77247  eV     1   --> A              
     e(  7 -  8) =    -37.77233  eV     2   --> A              
     e(  7 -  8) =    -37.77233  eV     2   --> B              
     e(  9 -  9) =    -37.77213  eV     1   --> B              
     e( 10 - 11) =    -37.76412  eV     2   --> A              
     e( 10 - 11) =    -37.76412  eV     2   --> B              
     e( 12 - 12) =    -23.85005  eV     1   --> B              
     e( 13 - 13) =    -23.83222  eV     1   --> A              
     e( 14 - 14) =    -23.83106  eV     1   --> B              
     e( 15 - 15) =     -3.94998  eV     1   --> A              
     e( 16 - 16) =     -3.36856  eV     1   --> B              
     e( 17 - 17) =      5.90509  eV     1   --> A              
     e( 18 - 18) =      7.17618  eV     1   --> B              
     e( 19 - 19) =      7.34767  eV     1   --> A              
     e( 20 - 20) =      7.36337  eV     1   --> B              
     e( 21 - 21) =      9.93398  eV     1   --> A              
     e( 22 - 22) =      9.94412  eV     1   --> B              
     e( 23 - 23) =     10.11174  eV     1   --> B              
     e( 24 - 24) =     10.11575  eV     1   --> A              
     e( 25 - 25) =     10.93966  eV     1   --> A              
     e( 26 - 26) =     13.44083  eV     1   --> B              
     e( 27 - 27) =     13.45548  eV     1   --> A              
     e( 28 - 28) =     15.73096  eV     1   --> B              
     e( 29 - 29) =     17.14394  eV     1   --> A              
     e( 30 - 30) =     19.04008  eV     1   --> A              
     e( 31 - 31) =     19.08138  eV     1   --> B              
     e( 32 - 32) =     19.36422  eV     1   --> B              
     e( 33 - 33) =     20.60695  eV     1   --> A              
     e( 34 - 34) =     20.94185  eV     1   --> B              
     e( 35 - 35) =     20.96326  eV     1   --> A              
     e( 36 - 36) =     22.86946  eV     1   --> B              
     e( 37 - 37) =     24.44886  eV     1   --> B              
     e( 38 - 38) =     24.46623  eV     1   --> A              
     e( 39 - 39) =     24.85339  eV     1   --> A              
     e( 40 - 40) =     25.99022  eV     1   --> B              

 **************************************************************************

 **************************************************************************

                    xk=(   0.00303,   0.00673,   0.29464  )

     Band symmetry, C_2  (2)    point group:

     e(  1 -  1) =    -47.29648  eV     1   --> A              
     e(  2 -  2) =    -37.78915  eV     1   --> A              
     e(  3 -  3) =    -37.78896  eV     1   --> B              
     e(  4 -  4) =    -37.78866  eV     1   --> B              
     e(  5 -  5) =    -37.78853  eV     1   --> A              
     e(  6 -  6) =    -37.77248  eV     1   --> A              
     e(  7 -  8) =    -37.77233  eV     2   --> A              
     e(  7 -  8) =    -37.77233  eV     2   --> B              
     e(  9 -  9) =    -37.77213  eV     1   --> B              
     e( 10 - 11) =    -37.76412  eV     2   --> A              
     e( 10 - 11) =    -37.76412  eV     2   --> B              
     e( 12 - 12) =    -23.85006  eV     1   --> B              
     e( 13 - 13) =    -23.83218  eV     1   --> A              
     e( 14 - 14) =    -23.83105  eV     1   --> B              
     e( 15 - 15) =     -3.95044  eV     1   --> A              
     e( 16 - 16) =     -3.36880  eV     1   --> B              
     e( 17 - 17) =      5.90462  eV     1   --> A              
     e( 18 - 18) =      7.18959  eV     1   --> B              
     e( 19 - 19) =      7.34753  eV     1   --> A              
     e( 20 - 20) =      7.35016  eV     1   --> B              
     e( 21 - 21) =      9.94985  eV     1   --> A              
     e( 22 - 22) =      9.95703  eV     1   --> B              
     e( 23 - 23) =     10.09944  eV     1   --> B              
     e( 24 - 24) =     10.10464  eV     1   --> A              
     e( 25 - 25) =     10.93683  eV     1   --> A              
     e( 26 - 26) =     13.44458  eV     1   --> B              
     e( 27 - 27) =     13.45631  eV     1   --> A              
     e( 28 - 28) =     15.72666  eV     1   --> B              
     e( 29 - 29) =     17.14151  eV     1   --> A              
     e( 30 - 30) =     19.04272  eV     1   --> A              
     e( 31 - 31) =     19.07925  eV     1   --> B              
     e( 32 - 32) =     19.36677  eV     1   --> B              
     e( 33 - 33) =     20.60735  eV     1   --> A              
     e( 34 - 34) =     20.94323  eV     1   --> B              
     e( 35 - 35) =     20.96258  eV     1   --> A              
     e( 36 - 36) =     22.86431  eV     1   --> B              
     e( 37 - 37) =     24.44968  eV     1   --> B              
     e( 38 - 38) =     24.46882  eV     1   --> A              
     e( 39 - 39) =     24.84696  eV     1   --> A              
     e( 40 - 40) =     25.99472  eV     1   --> B              

 **************************************************************************

 **************************************************************************

                    xk=(   0.00059,   0.00429,   0.29464  )

     Band symmetry, C_2  (2)    point group:

     e(  1 -  1) =    -47.29649  eV     1   --> A              
     e(  2 -  2) =    -37.78915  eV     1   --> A              
     e(  3 -  3) =    -37.78896  eV     1   --> B              
     e(  4 -  4) =    -37.78867  eV     1   --> B              
     e(  5 -  5) =    -37.78853  eV     1   --> A              
     e(  6 -  7) =    -37.77262  eV     2   --> A              
     e(  6 -  7) =    -37.77262  eV     2   --> B              
     e(  8 -  8) =    -37.77232  eV     1   --> A              
     e(  9 -  9) =    -37.77213  eV     1   --> B              
     e( 10 - 10) =    -37.76420  eV     1   --> A              
     e( 11 - 11) =    -37.76406  eV     1   --> B              
     e( 12 - 12) =    -23.85006  eV     1   --> B              
     e( 13 - 13) =    -23.83216  eV     1   --> A              
     e( 14 - 14) =    -23.83104  eV     1   --> B              
     e( 15 - 15) =     -3.95072  eV     1   --> A              
     e( 16 - 16) =     -3.36895  eV     1   --> B              
     e( 17 - 17) =      5.90433  eV     1   --> A              
     e( 18 - 18) =      7.19882  eV     1   --> B              
     e( 19 - 19) =      7.34102  eV     1   --> B              
     e( 20 - 20) =      7.34743  eV     1   --> A              
     e( 21 - 21) =      9.96067  eV     1   --> A              
     e( 22 - 22) =      9.96598  eV     1   --> B              
     e( 23 - 23) =     10.09081  eV     1   --> B              
     e( 24 - 24) =     10.09667  eV     1   --> A              
     e( 25 - 25) =     10.93511  eV     1   --> A              
     e( 26 - 26) =     13.44681  eV     1   --> B              
     e( 27 - 27) =     13.45680  eV     1   --> A              
     e( 28 - 28) =     15.72407  eV     1   --> B              
     e( 29 - 29) =     17.14002  eV     1   --> A              
     e( 30 - 30) =     19.04432  eV     1   --> A              
     e( 31 - 31) =     19.07797  eV     1   --> B              
     e( 32 - 32) =     19.36831  eV     1   --> B              
     e( 33 - 33) =     20.60753  eV     1   --> A              
     e( 34 - 34) =     20.94363  eV     1   --> B              
     e( 35 - 35) =     20.96203  eV     1   --> A              
     e( 36 - 36) =     22.86121  eV     1   --> B              
     e( 37 - 37) =     24.45014  eV     1   --> B              
     e( 38 - 38) =     24.47037  eV     1   --> A              
     e( 39 - 39) =     24.84301  eV     1   --> A              
     e( 40 - 40) =     25.99715  eV     1   --> B              

 **************************************************************************

 **************************************************************************

                    xk=(  -0.00185,   0.00185,   0.29464  )

     point group C_2h (2/m) 
     there are  4 classes
     the character table:

       E     C2    i     s_h  
A_g    1.00  1.00  1.00  1.00
B_g    1.00 -1.00  1.00 -1.00
A_u    1.00  1.00 -1.00 -1.00
B_u    1.00 -1.00 -1.00  1.00

     the symmetry operations in each class and the name of the first element:

     E        1
                                                                 
     C2       2
                                                                 
     i        3
                                                                 
     s_h      4
                                                                 

     Band symmetry, C_2h (2/m)  point group:

     e(  1 -  1) =    -47.29648  eV     1   --> A_g            
     e(  2 -  2) =    -37.78915  eV     1   --> A_u            
     e(  3 -  3) =    -37.78895  eV     1   --> B_u            
     e(  4 -  4) =    -37.78865  eV     1   --> B_g            
     e(  5 -  5) =    -37.78853  eV     1   --> A_g            
     e(  6 -  6) =    -37.77250  eV     1   --> A_g            
     e(  7 -  7) =    -37.77236  eV     1   --> B_g            
     e(  8 -  9) =    -37.77218  eV     2   --> A_u            
     e(  8 -  9) =    -37.77218  eV     2   --> B_u            
     e( 10 - 10) =    -37.76420  eV     1   --> A_g            
     e( 11 - 11) =    -37.76405  eV     1   --> B_u            
     e( 12 - 12) =    -23.85007  eV     1   --> B_u            
     e( 13 - 13) =    -23.83215  eV     1   --> A_u            
     e( 14 - 14) =    -23.83104  eV     1   --> B_u            
     e( 15 - 15) =     -3.95082  eV     1   --> A_g            
     e( 16 - 16) =     -3.36900  eV     1   --> B_u            
     e( 17 - 17) =      5.90424  eV     1   --> A_g            
     e( 18 - 18) =      7.20218  eV     1   --> B_u            
     e( 19 - 19) =      7.33771  eV     1   --> B_g            
     e( 20 - 20) =      7.34740  eV     1   --> A_g            
     e( 21 - 21) =      9.96458  eV     1   --> A_u            
     e( 22 - 22) =      9.96926  eV     1   --> B_u            
     e( 23 - 23) =     10.08770  eV     1   --> B_g            
     e( 24 - 24) =     10.09373  eV     1   --> A_g            
     e( 25 - 25) =     10.93454  eV     1   --> A_g            
     e( 26 - 26) =     13.44757  eV     1   --> B_g            
     e( 27 - 27) =     13.45697  eV     1   --> A_g            
     e( 28 - 28) =     15.72321  eV     1   --> B_u            
     e( 29 - 29) =     17.13953  eV     1   --> A_g            
     e( 30 - 30) =     19.04486  eV     1   --> A_u            
     e( 31 - 31) =     19.07754  eV     1   --> B_u            
     e( 32 - 32) =     19.36882  eV     1   --> B_u            
     e( 33 - 33) =     20.60760  eV     1   --> A_g            
     e( 34 - 34) =     20.94434  eV     1   --> B_g            
     e( 35 - 35) =     20.96204  eV     1   --> A_g            
     e( 36 - 36) =     22.86018  eV     1   --> B_u            
     e( 37 - 37) =     24.45044  eV     1   --> B_u            
     e( 38 - 38) =     24.47134  eV     1   --> A_u            
     e( 39 - 39) =     24.84170  eV     1   --> A_g            
     e( 40 - 40) =     25.99823  eV     1   --> B_g            

 **************************************************************************

     BANDS        :     45.80s CPU   1m55.21s WALL


   This run was terminated on:  20:17:15   5Nov2019            

=------------------------------------------------------------------------------=
   JOB DONE.
=------------------------------------------------------------------------------=
