
     Program PWSCF v.6.4 starts on  5Nov2019 at 18:40:27 

     This program is part of the open-source Quantum ESPRESSO suite
     for quantum simulation of materials; please cite
         "P. Giannozzi et al., J. Phys.:Condens. Matter 21 395502 (2009);
         "P. Giannozzi et al., J. Phys.:Condens. Matter 29 465901 (2017);
          URL http://www.quantum-espresso.org", 
     in publications or presentations arising from this work. More details at
     http://www.quantum-espresso.org/quote

     Parallel version (MPI), running on    64 processors

     MPI processes distributed on     8 nodes
     K-points division:     npool     =      64
     Waiting for input...
     Reading input from standard input

     Current dimensions of program PWSCF are:
     Max number of different atomic species (ntypx) = 10
     Max number of k-points (npk) =  40000
     Max angular momentum in pseudopotentials (lmaxx) =  3

     Atomic positions and unit cell read from directory:
     ./tmp/TiSe2.save/


     Subspace diagonalization in iterative solution of the eigenvalue problem:
     a serial algorithm will be used


     G-vector sticks info
     --------------------
     sticks:   dense  smooth     PW     G-vecs:    dense   smooth      PW
     Sum        2479     859    253               168117    34781    5529



     bravais-lattice index     =            0
     lattice parameter (alat)  =       6.6896  a.u.
     unit-cell volume          =     440.2643 (a.u.)^3
     number of atoms/cell      =            3
     number of atomic types    =            2
     number of electrons       =        44.00
     number of Kohn-Sham states=           40
     kinetic-energy cutoff     =      70.0000  Ry
     charge density cutoff     =     800.0000  Ry
     Exchange-correlation      = SLA PW NOGX NOGC ( 1  4  0  0 0 0)

     celldm(1)=   6.689630  celldm(2)=   0.000000  celldm(3)=   0.000000
     celldm(4)=   0.000000  celldm(5)=   0.000000  celldm(6)=   0.000000

     crystal axes: (cart. coord. in units of alat)
               a(1) = (   0.966063  -0.258191   0.007696 )  
               a(2) = (  -0.258191   0.966063  -0.007696 )  
               a(3) = (  -0.013060   0.013060   1.696830 )  

     reciprocal axes: (cart. coord. in units 2 pi/alat)
               b(1) = (  1.114714  0.297969  0.006286 )  
               b(2) = (  0.297969  1.114714 -0.006286 )  
               b(3) = ( -0.003704  0.003704  0.589277 )  


     PseudoPot. # 1 for Ti read from file:
     ./pseudo/Ti.upf
     MD5 check sum: 53bc0dda610e2d65968e83073ef0f8f1
     Pseudo is Norm-conserving + core correction, Zval = 12.0
     Generated using ONCVPSP code by D. R. Hamann
     Using radial grid of 1568 points,  6 beta functions with: 
                l(1) =   0
                l(2) =   0
                l(3) =   1
                l(4) =   1
                l(5) =   2
                l(6) =   2

     PseudoPot. # 2 for Se read from file:
     ./pseudo/Se.upf
     MD5 check sum: 134c4c62ae1a1890f780526fdd37a254
     Pseudo is Norm-conserving + core correction, Zval = 16.0
     Generated using ONCVPSP code by D. R. Hamann
     Using radial grid of 1198 points,  6 beta functions with: 
                l(1) =   0
                l(2) =   0
                l(3) =   1
                l(4) =   1
                l(5) =   2
                l(6) =   2

     atomic species   valence    mass     pseudopotential
        Ti            12.00    47.86700     Ti( 1.00)
        Se            16.00    78.97100     Se( 1.00)

      4 Sym. Ops., with inversion, found


                                    s                        frac. trans.

      isym =  1     identity                                     

 cryst.   s( 1) = (     1          0          0      )
                  (     0          1          0      )
                  (     0          0          1      )

 cart.    s( 1) = (  1.0000000 -0.0000000  0.0000000 )
                  ( -0.0000000  1.0000000 -0.0000000 )
                  (  0.0000000  0.0000000  1.0000000 )


      isym =  2     180 deg rotation - cart. axis [1,1,0]        

 cryst.   s( 2) = (     0          1          0      )
                  (     1          0          0      )
                  (     0          0         -1      )

 cart.    s( 2) = ( -0.0000000  1.0000000 -0.0000000 )
                  (  1.0000000 -0.0000000  0.0000000 )
                  (  0.0000000  0.0000000 -1.0000000 )


      isym =  3     inversion                                    

 cryst.   s( 3) = (    -1          0          0      )
                  (     0         -1          0      )
                  (     0          0         -1      )

 cart.    s( 3) = ( -1.0000000  0.0000000 -0.0000000 )
                  (  0.0000000 -1.0000000  0.0000000 )
                  (  0.0000000  0.0000000 -1.0000000 )


      isym =  4     inv. 180 deg rotation - cart. axis [1,1,0]   

 cryst.   s( 4) = (     0         -1          0      )
                  (    -1          0          0      )
                  (     0          0          1      )

 cart.    s( 4) = (  0.0000000 -1.0000000  0.0000000 )
                  ( -1.0000000  0.0000000 -0.0000000 )
                  (  0.0000000  0.0000000  1.0000000 )


   Cartesian axes

     site n.     atom                  positions (alat units)
         1           Ti  tau(   1) = (   0.0000000   0.0000000   0.0000000  )
         2           Se  tau(   2) = (   0.1473199   0.5605529   0.4220049  )
         3           Se  tau(   3) = (   0.5605529   0.1473199  -0.4220049  )

   Crystallographic axes

     site n.     atom                  positions (cryst. coord.)
         1           Ti  tau(   1) = (  0.0000000  0.0000000  0.0000000  )
         2           Se  tau(   2) = (  0.3338998  0.6661002  0.2502086  )
         3           Se  tau(   3) = (  0.6661002  0.3338998 -0.2502086  )

     number of k points=  1000  Marzari-Vanderbilt smearing, width (Ry)=  0.0100
                       cart. coord. in units 2pi/alat
        k(    1) = (   0.0000000   0.0000000   0.0000000), wk =   0.0020000
        k(    2) = (   0.0033375   0.0008921   0.0000188), wk =   0.0020000
        k(    3) = (   0.0066749   0.0017842   0.0000376), wk =   0.0020000
        k(    4) = (   0.0100124   0.0026764   0.0000565), wk =   0.0020000
        k(    5) = (   0.0133499   0.0035685   0.0000753), wk =   0.0020000
        k(    6) = (   0.0166873   0.0044606   0.0000941), wk =   0.0020000
        k(    7) = (   0.0200248   0.0053527   0.0001129), wk =   0.0020000
        k(    8) = (   0.0233623   0.0062449   0.0001317), wk =   0.0020000
        k(    9) = (   0.0266997   0.0071370   0.0001506), wk =   0.0020000
        k(   10) = (   0.0300372   0.0080291   0.0001694), wk =   0.0020000
        k(   11) = (   0.0333747   0.0089212   0.0001882), wk =   0.0020000
        k(   12) = (   0.0367121   0.0098134   0.0002070), wk =   0.0020000
        k(   13) = (   0.0400496   0.0107055   0.0002258), wk =   0.0020000
        k(   14) = (   0.0433871   0.0115976   0.0002447), wk =   0.0020000
        k(   15) = (   0.0467245   0.0124897   0.0002635), wk =   0.0020000
        k(   16) = (   0.0500620   0.0133818   0.0002823), wk =   0.0020000
        k(   17) = (   0.0533995   0.0142740   0.0003011), wk =   0.0020000
        k(   18) = (   0.0567369   0.0151661   0.0003200), wk =   0.0020000
        k(   19) = (   0.0600744   0.0160582   0.0003388), wk =   0.0020000
        k(   20) = (   0.0634119   0.0169503   0.0003576), wk =   0.0020000
        k(   21) = (   0.0667493   0.0178425   0.0003764), wk =   0.0020000
        k(   22) = (   0.0700868   0.0187346   0.0003952), wk =   0.0020000
        k(   23) = (   0.0734243   0.0196267   0.0004141), wk =   0.0020000
        k(   24) = (   0.0767617   0.0205188   0.0004329), wk =   0.0020000
        k(   25) = (   0.0800992   0.0214110   0.0004517), wk =   0.0020000
        k(   26) = (   0.0834367   0.0223031   0.0004705), wk =   0.0020000
        k(   27) = (   0.0867742   0.0231952   0.0004893), wk =   0.0020000
        k(   28) = (   0.0901116   0.0240873   0.0005082), wk =   0.0020000
        k(   29) = (   0.0934491   0.0249794   0.0005270), wk =   0.0020000
        k(   30) = (   0.0967866   0.0258716   0.0005458), wk =   0.0020000
        k(   31) = (   0.1001240   0.0267637   0.0005646), wk =   0.0020000
        k(   32) = (   0.1034615   0.0276558   0.0005834), wk =   0.0020000
        k(   33) = (   0.1067990   0.0285479   0.0006023), wk =   0.0020000
        k(   34) = (   0.1101364   0.0294401   0.0006211), wk =   0.0020000
        k(   35) = (   0.1134739   0.0303322   0.0006399), wk =   0.0020000
        k(   36) = (   0.1168114   0.0312243   0.0006587), wk =   0.0020000
        k(   37) = (   0.1201488   0.0321164   0.0006775), wk =   0.0020000
        k(   38) = (   0.1234863   0.0330086   0.0006964), wk =   0.0020000
        k(   39) = (   0.1268238   0.0339007   0.0007152), wk =   0.0020000
        k(   40) = (   0.1301612   0.0347928   0.0007340), wk =   0.0020000
        k(   41) = (   0.1334987   0.0356849   0.0007528), wk =   0.0020000
        k(   42) = (   0.1368362   0.0365770   0.0007717), wk =   0.0020000
        k(   43) = (   0.1401736   0.0374692   0.0007905), wk =   0.0020000
        k(   44) = (   0.1435111   0.0383613   0.0008093), wk =   0.0020000
        k(   45) = (   0.1468486   0.0392534   0.0008281), wk =   0.0020000
        k(   46) = (   0.1501860   0.0401455   0.0008469), wk =   0.0020000
        k(   47) = (   0.1535235   0.0410377   0.0008658), wk =   0.0020000
        k(   48) = (   0.1568610   0.0419298   0.0008846), wk =   0.0020000
        k(   49) = (   0.1601984   0.0428219   0.0009034), wk =   0.0020000
        k(   50) = (   0.1635359   0.0437140   0.0009222), wk =   0.0020000
        k(   51) = (   0.1668734   0.0446062   0.0009410), wk =   0.0020000
        k(   52) = (   0.1702108   0.0454983   0.0009599), wk =   0.0020000
        k(   53) = (   0.1735483   0.0463904   0.0009787), wk =   0.0020000
        k(   54) = (   0.1768858   0.0472825   0.0009975), wk =   0.0020000
        k(   55) = (   0.1802232   0.0481746   0.0010163), wk =   0.0020000
        k(   56) = (   0.1835607   0.0490668   0.0010351), wk =   0.0020000
        k(   57) = (   0.1868982   0.0499589   0.0010540), wk =   0.0020000
        k(   58) = (   0.1902356   0.0508510   0.0010728), wk =   0.0020000
        k(   59) = (   0.1935731   0.0517431   0.0010916), wk =   0.0020000
        k(   60) = (   0.1969106   0.0526353   0.0011104), wk =   0.0020000
        k(   61) = (   0.2002480   0.0535274   0.0011292), wk =   0.0020000
        k(   62) = (   0.2035855   0.0544195   0.0011481), wk =   0.0020000
        k(   63) = (   0.2069230   0.0553116   0.0011669), wk =   0.0020000
        k(   64) = (   0.2102604   0.0562038   0.0011857), wk =   0.0020000
        k(   65) = (   0.2135979   0.0570959   0.0012045), wk =   0.0020000
        k(   66) = (   0.2169354   0.0579880   0.0012233), wk =   0.0020000
        k(   67) = (   0.2202728   0.0588801   0.0012422), wk =   0.0020000
        k(   68) = (   0.2236103   0.0597722   0.0012610), wk =   0.0020000
        k(   69) = (   0.2269478   0.0606644   0.0012798), wk =   0.0020000
        k(   70) = (   0.2302852   0.0615565   0.0012986), wk =   0.0020000
        k(   71) = (   0.2336227   0.0624486   0.0013175), wk =   0.0020000
        k(   72) = (   0.2369602   0.0633407   0.0013363), wk =   0.0020000
        k(   73) = (   0.2402976   0.0642329   0.0013551), wk =   0.0020000
        k(   74) = (   0.2436351   0.0651250   0.0013739), wk =   0.0020000
        k(   75) = (   0.2469726   0.0660171   0.0013927), wk =   0.0020000
        k(   76) = (   0.2503100   0.0669092   0.0014116), wk =   0.0020000
        k(   77) = (   0.2536475   0.0678014   0.0014304), wk =   0.0020000
        k(   78) = (   0.2569850   0.0686935   0.0014492), wk =   0.0020000
        k(   79) = (   0.2603225   0.0695856   0.0014680), wk =   0.0020000
        k(   80) = (   0.2636599   0.0704777   0.0014868), wk =   0.0020000
        k(   81) = (   0.2669974   0.0713698   0.0015057), wk =   0.0020000
        k(   82) = (   0.2703349   0.0722620   0.0015245), wk =   0.0020000
        k(   83) = (   0.2736723   0.0731541   0.0015433), wk =   0.0020000
        k(   84) = (   0.2770098   0.0740462   0.0015621), wk =   0.0020000
        k(   85) = (   0.2803473   0.0749383   0.0015809), wk =   0.0020000
        k(   86) = (   0.2836847   0.0758305   0.0015998), wk =   0.0020000
        k(   87) = (   0.2870222   0.0767226   0.0016186), wk =   0.0020000
        k(   88) = (   0.2903597   0.0776147   0.0016374), wk =   0.0020000
        k(   89) = (   0.2936971   0.0785068   0.0016562), wk =   0.0020000
        k(   90) = (   0.2970346   0.0793990   0.0016750), wk =   0.0020000
        k(   91) = (   0.3003721   0.0802911   0.0016939), wk =   0.0020000
        k(   92) = (   0.3037095   0.0811832   0.0017127), wk =   0.0020000
        k(   93) = (   0.3070470   0.0820753   0.0017315), wk =   0.0020000
        k(   94) = (   0.3103845   0.0829674   0.0017503), wk =   0.0020000
        k(   95) = (   0.3137219   0.0838596   0.0017692), wk =   0.0020000
        k(   96) = (   0.3170594   0.0847517   0.0017880), wk =   0.0020000
        k(   97) = (   0.3203969   0.0856438   0.0018068), wk =   0.0020000
        k(   98) = (   0.3237343   0.0865359   0.0018256), wk =   0.0020000
        k(   99) = (   0.3270718   0.0874281   0.0018444), wk =   0.0020000
        k(  100) = (   0.3304093   0.0883202   0.0018633), wk =   0.0020000
        k(  101) = (   0.3337467   0.0892123   0.0018821), wk =   0.0020000
        k(  102) = (   0.3370842   0.0901044   0.0019009), wk =   0.0020000
        k(  103) = (   0.3404217   0.0909966   0.0019197), wk =   0.0020000
        k(  104) = (   0.3437591   0.0918887   0.0019385), wk =   0.0020000
        k(  105) = (   0.3470966   0.0927808   0.0019574), wk =   0.0020000
        k(  106) = (   0.3504341   0.0936729   0.0019762), wk =   0.0020000
        k(  107) = (   0.3537715   0.0945650   0.0019950), wk =   0.0020000
        k(  108) = (   0.3571090   0.0954572   0.0020138), wk =   0.0020000
        k(  109) = (   0.3604465   0.0963493   0.0020326), wk =   0.0020000
        k(  110) = (   0.3637839   0.0972414   0.0020515), wk =   0.0020000
        k(  111) = (   0.3671214   0.0981335   0.0020703), wk =   0.0020000
        k(  112) = (   0.3704589   0.0990257   0.0020891), wk =   0.0020000
        k(  113) = (   0.3737963   0.0999178   0.0021079), wk =   0.0020000
        k(  114) = (   0.3771338   0.1008099   0.0021267), wk =   0.0020000
        k(  115) = (   0.3804713   0.1017020   0.0021456), wk =   0.0020000
        k(  116) = (   0.3838087   0.1025942   0.0021644), wk =   0.0020000
        k(  117) = (   0.3871462   0.1034863   0.0021832), wk =   0.0020000
        k(  118) = (   0.3904837   0.1043784   0.0022020), wk =   0.0020000
        k(  119) = (   0.3938211   0.1052705   0.0022208), wk =   0.0020000
        k(  120) = (   0.3971586   0.1061626   0.0022397), wk =   0.0020000
        k(  121) = (   0.4004961   0.1070548   0.0022585), wk =   0.0020000
        k(  122) = (   0.4038335   0.1079469   0.0022773), wk =   0.0020000
        k(  123) = (   0.4071710   0.1088390   0.0022961), wk =   0.0020000
        k(  124) = (   0.4105085   0.1097311   0.0023150), wk =   0.0020000
        k(  125) = (   0.4138459   0.1106233   0.0023338), wk =   0.0020000
        k(  126) = (   0.4171834   0.1115154   0.0023526), wk =   0.0020000
        k(  127) = (   0.4205209   0.1124075   0.0023714), wk =   0.0020000
        k(  128) = (   0.4238584   0.1132996   0.0023902), wk =   0.0020000
        k(  129) = (   0.4271958   0.1141918   0.0024091), wk =   0.0020000
        k(  130) = (   0.4305333   0.1150839   0.0024279), wk =   0.0020000
        k(  131) = (   0.4338708   0.1159760   0.0024467), wk =   0.0020000
        k(  132) = (   0.4372082   0.1168681   0.0024655), wk =   0.0020000
        k(  133) = (   0.4405457   0.1177602   0.0024843), wk =   0.0020000
        k(  134) = (   0.4438832   0.1186524   0.0025032), wk =   0.0020000
        k(  135) = (   0.4472206   0.1195445   0.0025220), wk =   0.0020000
        k(  136) = (   0.4505581   0.1204366   0.0025408), wk =   0.0020000
        k(  137) = (   0.4538956   0.1213287   0.0025596), wk =   0.0020000
        k(  138) = (   0.4572330   0.1222209   0.0025784), wk =   0.0020000
        k(  139) = (   0.4605705   0.1231130   0.0025973), wk =   0.0020000
        k(  140) = (   0.4639080   0.1240051   0.0026161), wk =   0.0020000
        k(  141) = (   0.4672454   0.1248972   0.0026349), wk =   0.0020000
        k(  142) = (   0.4705829   0.1257894   0.0026537), wk =   0.0020000
        k(  143) = (   0.4739204   0.1266815   0.0026725), wk =   0.0020000
        k(  144) = (   0.4772578   0.1275736   0.0026914), wk =   0.0020000
        k(  145) = (   0.4805953   0.1284657   0.0027102), wk =   0.0020000
        k(  146) = (   0.4839328   0.1293578   0.0027290), wk =   0.0020000
        k(  147) = (   0.4872702   0.1302500   0.0027478), wk =   0.0020000
        k(  148) = (   0.4906077   0.1311421   0.0027666), wk =   0.0020000
        k(  149) = (   0.4939452   0.1320342   0.0027855), wk =   0.0020000
        k(  150) = (   0.4972826   0.1329263   0.0028043), wk =   0.0020000
        k(  151) = (   0.5006201   0.1338185   0.0028231), wk =   0.0020000
        k(  152) = (   0.5039576   0.1347106   0.0028419), wk =   0.0020000
        k(  153) = (   0.5072950   0.1356027   0.0028608), wk =   0.0020000
        k(  154) = (   0.5106325   0.1364948   0.0028796), wk =   0.0020000
        k(  155) = (   0.5139700   0.1373870   0.0028984), wk =   0.0020000
        k(  156) = (   0.5173074   0.1382791   0.0029172), wk =   0.0020000
        k(  157) = (   0.5206449   0.1391712   0.0029360), wk =   0.0020000
        k(  158) = (   0.5239824   0.1400633   0.0029549), wk =   0.0020000
        k(  159) = (   0.5273198   0.1409554   0.0029737), wk =   0.0020000
        k(  160) = (   0.5306573   0.1418476   0.0029925), wk =   0.0020000
        k(  161) = (   0.5339948   0.1427397   0.0030113), wk =   0.0020000
        k(  162) = (   0.5373322   0.1436318   0.0030301), wk =   0.0020000
        k(  163) = (   0.5406697   0.1445239   0.0030490), wk =   0.0020000
        k(  164) = (   0.5440072   0.1454161   0.0030678), wk =   0.0020000
        k(  165) = (   0.5473446   0.1463082   0.0030866), wk =   0.0020000
        k(  166) = (   0.5506821   0.1472003   0.0031054), wk =   0.0020000
        k(  167) = (   0.5540196   0.1480924   0.0031242), wk =   0.0020000
        k(  168) = (   0.5573570   0.1489846   0.0031431), wk =   0.0020000
        k(  169) = (   0.5564693   0.1523068   0.0031107), wk =   0.0020000
        k(  170) = (   0.5555815   0.1556291   0.0030783), wk =   0.0020000
        k(  171) = (   0.5546937   0.1589513   0.0030459), wk =   0.0020000
        k(  172) = (   0.5538059   0.1622736   0.0030135), wk =   0.0020000
        k(  173) = (   0.5529182   0.1655958   0.0029811), wk =   0.0020000
        k(  174) = (   0.5520304   0.1689181   0.0029486), wk =   0.0020000
        k(  175) = (   0.5511426   0.1722403   0.0029162), wk =   0.0020000
        k(  176) = (   0.5502548   0.1755626   0.0028838), wk =   0.0020000
        k(  177) = (   0.5493671   0.1788848   0.0028514), wk =   0.0020000
        k(  178) = (   0.5484793   0.1822071   0.0028190), wk =   0.0020000
        k(  179) = (   0.5475915   0.1855293   0.0027866), wk =   0.0020000
        k(  180) = (   0.5467037   0.1888516   0.0027542), wk =   0.0020000
        k(  181) = (   0.5458160   0.1921738   0.0027218), wk =   0.0020000
        k(  182) = (   0.5449282   0.1954961   0.0026894), wk =   0.0020000
        k(  183) = (   0.5440404   0.1988183   0.0026570), wk =   0.0020000
        k(  184) = (   0.5431526   0.2021406   0.0026246), wk =   0.0020000
        k(  185) = (   0.5422649   0.2054628   0.0025922), wk =   0.0020000
        k(  186) = (   0.5413771   0.2087851   0.0025598), wk =   0.0020000
        k(  187) = (   0.5404893   0.2121073   0.0025274), wk =   0.0020000
        k(  188) = (   0.5396015   0.2154296   0.0024950), wk =   0.0020000
        k(  189) = (   0.5387138   0.2187518   0.0024626), wk =   0.0020000
        k(  190) = (   0.5378260   0.2220741   0.0024302), wk =   0.0020000
        k(  191) = (   0.5369382   0.2253963   0.0023978), wk =   0.0020000
        k(  192) = (   0.5360504   0.2287186   0.0023654), wk =   0.0020000
        k(  193) = (   0.5351627   0.2320408   0.0023330), wk =   0.0020000
        k(  194) = (   0.5342749   0.2353631   0.0023006), wk =   0.0020000
        k(  195) = (   0.5333871   0.2386853   0.0022682), wk =   0.0020000
        k(  196) = (   0.5324993   0.2420076   0.0022358), wk =   0.0020000
        k(  197) = (   0.5316116   0.2453298   0.0022034), wk =   0.0020000
        k(  198) = (   0.5307238   0.2486521   0.0021710), wk =   0.0020000
        k(  199) = (   0.5298360   0.2519743   0.0021386), wk =   0.0020000
        k(  200) = (   0.5289482   0.2552966   0.0021062), wk =   0.0020000
        k(  201) = (   0.5280605   0.2586188   0.0020738), wk =   0.0020000
        k(  202) = (   0.5271727   0.2619411   0.0020414), wk =   0.0020000
        k(  203) = (   0.5262849   0.2652633   0.0020090), wk =   0.0020000
        k(  204) = (   0.5253971   0.2685856   0.0019766), wk =   0.0020000
        k(  205) = (   0.5245094   0.2719078   0.0019442), wk =   0.0020000
        k(  206) = (   0.5236216   0.2752301   0.0019118), wk =   0.0020000
        k(  207) = (   0.5227338   0.2785523   0.0018794), wk =   0.0020000
        k(  208) = (   0.5218460   0.2818746   0.0018470), wk =   0.0020000
        k(  209) = (   0.5209583   0.2851968   0.0018146), wk =   0.0020000
        k(  210) = (   0.5200705   0.2885191   0.0017822), wk =   0.0020000
        k(  211) = (   0.5191827   0.2918413   0.0017497), wk =   0.0020000
        k(  212) = (   0.5182949   0.2951636   0.0017173), wk =   0.0020000
        k(  213) = (   0.5174072   0.2984858   0.0016849), wk =   0.0020000
        k(  214) = (   0.5165194   0.3018081   0.0016525), wk =   0.0020000
        k(  215) = (   0.5156316   0.3051303   0.0016201), wk =   0.0020000
        k(  216) = (   0.5147438   0.3084526   0.0015877), wk =   0.0020000
        k(  217) = (   0.5138561   0.3117748   0.0015553), wk =   0.0020000
        k(  218) = (   0.5129683   0.3150971   0.0015229), wk =   0.0020000
        k(  219) = (   0.5120805   0.3184193   0.0014905), wk =   0.0020000
        k(  220) = (   0.5111927   0.3217416   0.0014581), wk =   0.0020000
        k(  221) = (   0.5103050   0.3250638   0.0014257), wk =   0.0020000
        k(  222) = (   0.5094172   0.3283861   0.0013933), wk =   0.0020000
        k(  223) = (   0.5085294   0.3317083   0.0013609), wk =   0.0020000
        k(  224) = (   0.5076416   0.3350306   0.0013285), wk =   0.0020000
        k(  225) = (   0.5067539   0.3383528   0.0012961), wk =   0.0020000
        k(  226) = (   0.5058661   0.3416751   0.0012637), wk =   0.0020000
        k(  227) = (   0.5049783   0.3449973   0.0012313), wk =   0.0020000
        k(  228) = (   0.5040905   0.3483196   0.0011989), wk =   0.0020000
        k(  229) = (   0.5032028   0.3516418   0.0011665), wk =   0.0020000
        k(  230) = (   0.5023150   0.3549641   0.0011341), wk =   0.0020000
        k(  231) = (   0.5014272   0.3582863   0.0011017), wk =   0.0020000
        k(  232) = (   0.5005394   0.3616086   0.0010693), wk =   0.0020000
        k(  233) = (   0.4996517   0.3649308   0.0010369), wk =   0.0020000
        k(  234) = (   0.4987639   0.3682531   0.0010045), wk =   0.0020000
        k(  235) = (   0.4978761   0.3715753   0.0009721), wk =   0.0020000
        k(  236) = (   0.4969883   0.3748976   0.0009397), wk =   0.0020000
        k(  237) = (   0.4961006   0.3782198   0.0009073), wk =   0.0020000
        k(  238) = (   0.4952128   0.3815421   0.0008749), wk =   0.0020000
        k(  239) = (   0.4943250   0.3848643   0.0008425), wk =   0.0020000
        k(  240) = (   0.4934372   0.3881866   0.0008101), wk =   0.0020000
        k(  241) = (   0.4925495   0.3915088   0.0007777), wk =   0.0020000
        k(  242) = (   0.4916617   0.3948311   0.0007453), wk =   0.0020000
        k(  243) = (   0.4907739   0.3981533   0.0007129), wk =   0.0020000
        k(  244) = (   0.4898861   0.4014756   0.0006805), wk =   0.0020000
        k(  245) = (   0.4889984   0.4047978   0.0006481), wk =   0.0020000
        k(  246) = (   0.4881106   0.4081201   0.0006157), wk =   0.0020000
        k(  247) = (   0.4872228   0.4114423   0.0005832), wk =   0.0020000
        k(  248) = (   0.4863350   0.4147646   0.0005508), wk =   0.0020000
        k(  249) = (   0.4854473   0.4180868   0.0005184), wk =   0.0020000
        k(  250) = (   0.4845595   0.4214091   0.0004860), wk =   0.0020000
        k(  251) = (   0.4836717   0.4247313   0.0004536), wk =   0.0020000
        k(  252) = (   0.4827839   0.4280536   0.0004212), wk =   0.0020000
        k(  253) = (   0.4818962   0.4313759   0.0003888), wk =   0.0020000
        k(  254) = (   0.4810084   0.4346981   0.0003564), wk =   0.0020000
        k(  255) = (   0.4801206   0.4380204   0.0003240), wk =   0.0020000
        k(  256) = (   0.4792328   0.4413426   0.0002916), wk =   0.0020000
        k(  257) = (   0.4783451   0.4446649   0.0002592), wk =   0.0020000
        k(  258) = (   0.4774573   0.4479871   0.0002268), wk =   0.0020000
        k(  259) = (   0.4765695   0.4513094   0.0001944), wk =   0.0020000
        k(  260) = (   0.4756817   0.4546316   0.0001620), wk =   0.0020000
        k(  261) = (   0.4747940   0.4579539   0.0001296), wk =   0.0020000
        k(  262) = (   0.4739062   0.4612761   0.0000972), wk =   0.0020000
        k(  263) = (   0.4730184   0.4645984   0.0000648), wk =   0.0020000
        k(  264) = (   0.4721306   0.4679206   0.0000324), wk =   0.0020000
        k(  265) = (   0.4712429   0.4712429   0.0000000), wk =   0.0020000
        k(  266) = (   0.4688012   0.4688012   0.0000000), wk =   0.0020000
        k(  267) = (   0.4663595   0.4663595   0.0000000), wk =   0.0020000
        k(  268) = (   0.4639178   0.4639178   0.0000000), wk =   0.0020000
        k(  269) = (   0.4614762   0.4614762   0.0000000), wk =   0.0020000
        k(  270) = (   0.4590345   0.4590345   0.0000000), wk =   0.0020000
        k(  271) = (   0.4565928   0.4565928   0.0000000), wk =   0.0020000
        k(  272) = (   0.4541511   0.4541511   0.0000000), wk =   0.0020000
        k(  273) = (   0.4517095   0.4517095   0.0000000), wk =   0.0020000
        k(  274) = (   0.4492678   0.4492678   0.0000000), wk =   0.0020000
        k(  275) = (   0.4468261   0.4468261   0.0000000), wk =   0.0020000
        k(  276) = (   0.4443845   0.4443845   0.0000000), wk =   0.0020000
        k(  277) = (   0.4419428   0.4419428   0.0000000), wk =   0.0020000
        k(  278) = (   0.4395011   0.4395011   0.0000000), wk =   0.0020000
        k(  279) = (   0.4370594   0.4370594   0.0000000), wk =   0.0020000
        k(  280) = (   0.4346178   0.4346178   0.0000000), wk =   0.0020000
        k(  281) = (   0.4321761   0.4321761   0.0000000), wk =   0.0020000
        k(  282) = (   0.4297344   0.4297344   0.0000000), wk =   0.0020000
        k(  283) = (   0.4272927   0.4272927   0.0000000), wk =   0.0020000
        k(  284) = (   0.4248511   0.4248511   0.0000000), wk =   0.0020000
        k(  285) = (   0.4224094   0.4224094   0.0000000), wk =   0.0020000
        k(  286) = (   0.4199677   0.4199677   0.0000000), wk =   0.0020000
        k(  287) = (   0.4175261   0.4175261   0.0000000), wk =   0.0020000
        k(  288) = (   0.4150844   0.4150844   0.0000000), wk =   0.0020000
        k(  289) = (   0.4126427   0.4126427   0.0000000), wk =   0.0020000
        k(  290) = (   0.4102010   0.4102010   0.0000000), wk =   0.0020000
        k(  291) = (   0.4077594   0.4077594   0.0000000), wk =   0.0020000
        k(  292) = (   0.4053177   0.4053177   0.0000000), wk =   0.0020000
        k(  293) = (   0.4028760   0.4028760   0.0000000), wk =   0.0020000
        k(  294) = (   0.4004343   0.4004343   0.0000000), wk =   0.0020000
        k(  295) = (   0.3979927   0.3979927   0.0000000), wk =   0.0020000
        k(  296) = (   0.3955510   0.3955510   0.0000000), wk =   0.0020000
        k(  297) = (   0.3931093   0.3931093   0.0000000), wk =   0.0020000
        k(  298) = (   0.3906677   0.3906677   0.0000000), wk =   0.0020000
        k(  299) = (   0.3882260   0.3882260   0.0000000), wk =   0.0020000
        k(  300) = (   0.3857843   0.3857843   0.0000000), wk =   0.0020000
        k(  301) = (   0.3833426   0.3833426   0.0000000), wk =   0.0020000
        k(  302) = (   0.3809010   0.3809010   0.0000000), wk =   0.0020000
        k(  303) = (   0.3784593   0.3784593   0.0000000), wk =   0.0020000
        k(  304) = (   0.3760176   0.3760176   0.0000000), wk =   0.0020000
        k(  305) = (   0.3735759   0.3735759   0.0000000), wk =   0.0020000
        k(  306) = (   0.3711343   0.3711343   0.0000000), wk =   0.0020000
        k(  307) = (   0.3686926   0.3686926   0.0000000), wk =   0.0020000
        k(  308) = (   0.3662509   0.3662509   0.0000000), wk =   0.0020000
        k(  309) = (   0.3638093   0.3638093   0.0000000), wk =   0.0020000
        k(  310) = (   0.3613676   0.3613676   0.0000000), wk =   0.0020000
        k(  311) = (   0.3589259   0.3589259   0.0000000), wk =   0.0020000
        k(  312) = (   0.3564842   0.3564842   0.0000000), wk =   0.0020000
        k(  313) = (   0.3540426   0.3540426   0.0000000), wk =   0.0020000
        k(  314) = (   0.3516009   0.3516009   0.0000000), wk =   0.0020000
        k(  315) = (   0.3491592   0.3491592   0.0000000), wk =   0.0020000
        k(  316) = (   0.3467175   0.3467175   0.0000000), wk =   0.0020000
        k(  317) = (   0.3442759   0.3442759   0.0000000), wk =   0.0020000
        k(  318) = (   0.3418342   0.3418342   0.0000000), wk =   0.0020000
        k(  319) = (   0.3393925   0.3393925   0.0000000), wk =   0.0020000
        k(  320) = (   0.3369509   0.3369509   0.0000000), wk =   0.0020000
        k(  321) = (   0.3345092   0.3345092   0.0000000), wk =   0.0020000
        k(  322) = (   0.3320675   0.3320675   0.0000000), wk =   0.0020000
        k(  323) = (   0.3296258   0.3296258   0.0000000), wk =   0.0020000
        k(  324) = (   0.3271842   0.3271842   0.0000000), wk =   0.0020000
        k(  325) = (   0.3247425   0.3247425   0.0000000), wk =   0.0020000
        k(  326) = (   0.3223008   0.3223008   0.0000000), wk =   0.0020000
        k(  327) = (   0.3198591   0.3198591   0.0000000), wk =   0.0020000
        k(  328) = (   0.3174175   0.3174175   0.0000000), wk =   0.0020000
        k(  329) = (   0.3149758   0.3149758   0.0000000), wk =   0.0020000
        k(  330) = (   0.3125341   0.3125341   0.0000000), wk =   0.0020000
        k(  331) = (   0.3100925   0.3100925   0.0000000), wk =   0.0020000
        k(  332) = (   0.3076508   0.3076508   0.0000000), wk =   0.0020000
        k(  333) = (   0.3052091   0.3052091   0.0000000), wk =   0.0020000
        k(  334) = (   0.3027674   0.3027674   0.0000000), wk =   0.0020000
        k(  335) = (   0.3003258   0.3003258   0.0000000), wk =   0.0020000
        k(  336) = (   0.2978841   0.2978841   0.0000000), wk =   0.0020000
        k(  337) = (   0.2954424   0.2954424   0.0000000), wk =   0.0020000
        k(  338) = (   0.2930007   0.2930007   0.0000000), wk =   0.0020000
        k(  339) = (   0.2905591   0.2905591   0.0000000), wk =   0.0020000
        k(  340) = (   0.2881174   0.2881174   0.0000000), wk =   0.0020000
        k(  341) = (   0.2856757   0.2856757   0.0000000), wk =   0.0020000
        k(  342) = (   0.2832340   0.2832340   0.0000000), wk =   0.0020000
        k(  343) = (   0.2807924   0.2807924   0.0000000), wk =   0.0020000
        k(  344) = (   0.2783507   0.2783507   0.0000000), wk =   0.0020000
        k(  345) = (   0.2759090   0.2759090   0.0000000), wk =   0.0020000
        k(  346) = (   0.2734674   0.2734674   0.0000000), wk =   0.0020000
        k(  347) = (   0.2710257   0.2710257   0.0000000), wk =   0.0020000
        k(  348) = (   0.2685840   0.2685840   0.0000000), wk =   0.0020000
        k(  349) = (   0.2661423   0.2661423   0.0000000), wk =   0.0020000
        k(  350) = (   0.2637007   0.2637007   0.0000000), wk =   0.0020000
        k(  351) = (   0.2612590   0.2612590   0.0000000), wk =   0.0020000
        k(  352) = (   0.2588173   0.2588173   0.0000000), wk =   0.0020000
        k(  353) = (   0.2563756   0.2563756   0.0000000), wk =   0.0020000
        k(  354) = (   0.2539340   0.2539340   0.0000000), wk =   0.0020000
        k(  355) = (   0.2514923   0.2514923   0.0000000), wk =   0.0020000
        k(  356) = (   0.2490506   0.2490506   0.0000000), wk =   0.0020000
        k(  357) = (   0.2466090   0.2466090   0.0000000), wk =   0.0020000
        k(  358) = (   0.2441673   0.2441673   0.0000000), wk =   0.0020000
        k(  359) = (   0.2417256   0.2417256   0.0000000), wk =   0.0020000
        k(  360) = (   0.2392839   0.2392839   0.0000000), wk =   0.0020000
        k(  361) = (   0.2368423   0.2368423   0.0000000), wk =   0.0020000
        k(  362) = (   0.2344006   0.2344006   0.0000000), wk =   0.0020000
        k(  363) = (   0.2319589   0.2319589   0.0000000), wk =   0.0020000
        k(  364) = (   0.2295172   0.2295172   0.0000000), wk =   0.0020000
        k(  365) = (   0.2270756   0.2270756   0.0000000), wk =   0.0020000
        k(  366) = (   0.2246339   0.2246339   0.0000000), wk =   0.0020000
        k(  367) = (   0.2221922   0.2221922   0.0000000), wk =   0.0020000
        k(  368) = (   0.2197506   0.2197506   0.0000000), wk =   0.0020000
        k(  369) = (   0.2173089   0.2173089   0.0000000), wk =   0.0020000
        k(  370) = (   0.2148672   0.2148672   0.0000000), wk =   0.0020000
        k(  371) = (   0.2124255   0.2124255   0.0000000), wk =   0.0020000
        k(  372) = (   0.2099839   0.2099839   0.0000000), wk =   0.0020000
        k(  373) = (   0.2075422   0.2075422   0.0000000), wk =   0.0020000
        k(  374) = (   0.2051005   0.2051005   0.0000000), wk =   0.0020000
        k(  375) = (   0.2026588   0.2026588   0.0000000), wk =   0.0020000
        k(  376) = (   0.2002172   0.2002172   0.0000000), wk =   0.0020000
        k(  377) = (   0.1977755   0.1977755   0.0000000), wk =   0.0020000
        k(  378) = (   0.1953338   0.1953338   0.0000000), wk =   0.0020000
        k(  379) = (   0.1928922   0.1928922   0.0000000), wk =   0.0020000
        k(  380) = (   0.1904505   0.1904505   0.0000000), wk =   0.0020000
        k(  381) = (   0.1880088   0.1880088   0.0000000), wk =   0.0020000
        k(  382) = (   0.1855671   0.1855671   0.0000000), wk =   0.0020000
        k(  383) = (   0.1831255   0.1831255   0.0000000), wk =   0.0020000
        k(  384) = (   0.1806838   0.1806838   0.0000000), wk =   0.0020000
        k(  385) = (   0.1782421   0.1782421   0.0000000), wk =   0.0020000
        k(  386) = (   0.1758004   0.1758004   0.0000000), wk =   0.0020000
        k(  387) = (   0.1733588   0.1733588   0.0000000), wk =   0.0020000
        k(  388) = (   0.1709171   0.1709171   0.0000000), wk =   0.0020000
        k(  389) = (   0.1684754   0.1684754   0.0000000), wk =   0.0020000
        k(  390) = (   0.1660338   0.1660338   0.0000000), wk =   0.0020000
        k(  391) = (   0.1635921   0.1635921   0.0000000), wk =   0.0020000
        k(  392) = (   0.1611504   0.1611504   0.0000000), wk =   0.0020000
        k(  393) = (   0.1587087   0.1587087   0.0000000), wk =   0.0020000
        k(  394) = (   0.1562671   0.1562671   0.0000000), wk =   0.0020000
        k(  395) = (   0.1538254   0.1538254   0.0000000), wk =   0.0020000
        k(  396) = (   0.1513837   0.1513837   0.0000000), wk =   0.0020000
        k(  397) = (   0.1489420   0.1489420   0.0000000), wk =   0.0020000
        k(  398) = (   0.1465004   0.1465004   0.0000000), wk =   0.0020000
        k(  399) = (   0.1440587   0.1440587   0.0000000), wk =   0.0020000
        k(  400) = (   0.1416170   0.1416170   0.0000000), wk =   0.0020000
        k(  401) = (   0.1391754   0.1391754   0.0000000), wk =   0.0020000
        k(  402) = (   0.1367337   0.1367337   0.0000000), wk =   0.0020000
        k(  403) = (   0.1342920   0.1342920   0.0000000), wk =   0.0020000
        k(  404) = (   0.1318503   0.1318503   0.0000000), wk =   0.0020000
        k(  405) = (   0.1294087   0.1294087   0.0000000), wk =   0.0020000
        k(  406) = (   0.1269670   0.1269670   0.0000000), wk =   0.0020000
        k(  407) = (   0.1245253   0.1245253   0.0000000), wk =   0.0020000
        k(  408) = (   0.1220836   0.1220836   0.0000000), wk =   0.0020000
        k(  409) = (   0.1196420   0.1196420   0.0000000), wk =   0.0020000
        k(  410) = (   0.1172003   0.1172003   0.0000000), wk =   0.0020000
        k(  411) = (   0.1147586   0.1147586   0.0000000), wk =   0.0020000
        k(  412) = (   0.1123170   0.1123170   0.0000000), wk =   0.0020000
        k(  413) = (   0.1098753   0.1098753   0.0000000), wk =   0.0020000
        k(  414) = (   0.1074336   0.1074336   0.0000000), wk =   0.0020000
        k(  415) = (   0.1049919   0.1049919   0.0000000), wk =   0.0020000
        k(  416) = (   0.1025503   0.1025503   0.0000000), wk =   0.0020000
        k(  417) = (   0.1001086   0.1001086   0.0000000), wk =   0.0020000
        k(  418) = (   0.0976669   0.0976669   0.0000000), wk =   0.0020000
        k(  419) = (   0.0952252   0.0952252   0.0000000), wk =   0.0020000
        k(  420) = (   0.0927836   0.0927836   0.0000000), wk =   0.0020000
        k(  421) = (   0.0903419   0.0903419   0.0000000), wk =   0.0020000
        k(  422) = (   0.0879002   0.0879002   0.0000000), wk =   0.0020000
        k(  423) = (   0.0854585   0.0854585   0.0000000), wk =   0.0020000
        k(  424) = (   0.0830169   0.0830169   0.0000000), wk =   0.0020000
        k(  425) = (   0.0805752   0.0805752   0.0000000), wk =   0.0020000
        k(  426) = (   0.0781335   0.0781335   0.0000000), wk =   0.0020000
        k(  427) = (   0.0756919   0.0756919   0.0000000), wk =   0.0020000
        k(  428) = (   0.0732502   0.0732502   0.0000000), wk =   0.0020000
        k(  429) = (   0.0708085   0.0708085   0.0000000), wk =   0.0020000
        k(  430) = (   0.0683668   0.0683668   0.0000000), wk =   0.0020000
        k(  431) = (   0.0659252   0.0659252   0.0000000), wk =   0.0020000
        k(  432) = (   0.0634835   0.0634835   0.0000000), wk =   0.0020000
        k(  433) = (   0.0610418   0.0610418   0.0000000), wk =   0.0020000
        k(  434) = (   0.0586001   0.0586001   0.0000000), wk =   0.0020000
        k(  435) = (   0.0561585   0.0561585   0.0000000), wk =   0.0020000
        k(  436) = (   0.0537168   0.0537168   0.0000000), wk =   0.0020000
        k(  437) = (   0.0512751   0.0512751   0.0000000), wk =   0.0020000
        k(  438) = (   0.0488335   0.0488335   0.0000000), wk =   0.0020000
        k(  439) = (   0.0463918   0.0463918   0.0000000), wk =   0.0020000
        k(  440) = (   0.0439501   0.0439501   0.0000000), wk =   0.0020000
        k(  441) = (   0.0415084   0.0415084   0.0000000), wk =   0.0020000
        k(  442) = (   0.0390668   0.0390668   0.0000000), wk =   0.0020000
        k(  443) = (   0.0366251   0.0366251   0.0000000), wk =   0.0020000
        k(  444) = (   0.0341834   0.0341834   0.0000000), wk =   0.0020000
        k(  445) = (   0.0317417   0.0317417   0.0000000), wk =   0.0020000
        k(  446) = (   0.0293001   0.0293001   0.0000000), wk =   0.0020000
        k(  447) = (   0.0268584   0.0268584   0.0000000), wk =   0.0020000
        k(  448) = (   0.0244167   0.0244167   0.0000000), wk =   0.0020000
        k(  449) = (   0.0219751   0.0219751   0.0000000), wk =   0.0020000
        k(  450) = (   0.0195334   0.0195334   0.0000000), wk =   0.0020000
        k(  451) = (   0.0170917   0.0170917   0.0000000), wk =   0.0020000
        k(  452) = (   0.0146500   0.0146500   0.0000000), wk =   0.0020000
        k(  453) = (   0.0122084   0.0122084   0.0000000), wk =   0.0020000
        k(  454) = (   0.0097667   0.0097667   0.0000000), wk =   0.0020000
        k(  455) = (   0.0073250   0.0073250   0.0000000), wk =   0.0020000
        k(  456) = (   0.0048833   0.0048833   0.0000000), wk =   0.0020000
        k(  457) = (   0.0024417   0.0024417   0.0000000), wk =   0.0020000
        k(  458) = (   0.0000000   0.0000000   0.0000000), wk =   0.0020000
        k(  459) = (  -0.0000218   0.0000218   0.0034663), wk =   0.0020000
        k(  460) = (  -0.0000436   0.0000436   0.0069327), wk =   0.0020000
        k(  461) = (  -0.0000654   0.0000654   0.0103990), wk =   0.0020000
        k(  462) = (  -0.0000872   0.0000872   0.0138653), wk =   0.0020000
        k(  463) = (  -0.0001090   0.0001090   0.0173317), wk =   0.0020000
        k(  464) = (  -0.0001307   0.0001307   0.0207980), wk =   0.0020000
        k(  465) = (  -0.0001525   0.0001525   0.0242643), wk =   0.0020000
        k(  466) = (  -0.0001743   0.0001743   0.0277307), wk =   0.0020000
        k(  467) = (  -0.0001961   0.0001961   0.0311970), wk =   0.0020000
        k(  468) = (  -0.0002179   0.0002179   0.0346634), wk =   0.0020000
        k(  469) = (  -0.0002397   0.0002397   0.0381297), wk =   0.0020000
        k(  470) = (  -0.0002615   0.0002615   0.0415960), wk =   0.0020000
        k(  471) = (  -0.0002833   0.0002833   0.0450624), wk =   0.0020000
        k(  472) = (  -0.0003051   0.0003051   0.0485287), wk =   0.0020000
        k(  473) = (  -0.0003269   0.0003269   0.0519950), wk =   0.0020000
        k(  474) = (  -0.0003486   0.0003486   0.0554614), wk =   0.0020000
        k(  475) = (  -0.0003704   0.0003704   0.0589277), wk =   0.0020000
        k(  476) = (  -0.0003922   0.0003922   0.0623940), wk =   0.0020000
        k(  477) = (  -0.0004140   0.0004140   0.0658604), wk =   0.0020000
        k(  478) = (  -0.0004358   0.0004358   0.0693267), wk =   0.0020000
        k(  479) = (  -0.0004576   0.0004576   0.0727930), wk =   0.0020000
        k(  480) = (  -0.0004794   0.0004794   0.0762594), wk =   0.0020000
        k(  481) = (  -0.0005012   0.0005012   0.0797257), wk =   0.0020000
        k(  482) = (  -0.0005230   0.0005230   0.0831921), wk =   0.0020000
        k(  483) = (  -0.0005448   0.0005448   0.0866584), wk =   0.0020000
        k(  484) = (  -0.0005666   0.0005666   0.0901247), wk =   0.0020000
        k(  485) = (  -0.0005883   0.0005883   0.0935911), wk =   0.0020000
        k(  486) = (  -0.0006101   0.0006101   0.0970574), wk =   0.0020000
        k(  487) = (  -0.0006319   0.0006319   0.1005237), wk =   0.0020000
        k(  488) = (  -0.0006537   0.0006537   0.1039901), wk =   0.0020000
        k(  489) = (  -0.0006755   0.0006755   0.1074564), wk =   0.0020000
        k(  490) = (  -0.0006973   0.0006973   0.1109227), wk =   0.0020000
        k(  491) = (  -0.0007191   0.0007191   0.1143891), wk =   0.0020000
        k(  492) = (  -0.0007409   0.0007409   0.1178554), wk =   0.0020000
        k(  493) = (  -0.0007627   0.0007627   0.1213217), wk =   0.0020000
        k(  494) = (  -0.0007845   0.0007845   0.1247881), wk =   0.0020000
        k(  495) = (  -0.0008062   0.0008062   0.1282544), wk =   0.0020000
        k(  496) = (  -0.0008280   0.0008280   0.1317208), wk =   0.0020000
        k(  497) = (  -0.0008498   0.0008498   0.1351871), wk =   0.0020000
        k(  498) = (  -0.0008716   0.0008716   0.1386534), wk =   0.0020000
        k(  499) = (  -0.0008934   0.0008934   0.1421198), wk =   0.0020000
        k(  500) = (  -0.0009152   0.0009152   0.1455861), wk =   0.0020000
        k(  501) = (  -0.0009370   0.0009370   0.1490524), wk =   0.0020000
        k(  502) = (  -0.0009588   0.0009588   0.1525188), wk =   0.0020000
        k(  503) = (  -0.0009806   0.0009806   0.1559851), wk =   0.0020000
        k(  504) = (  -0.0010024   0.0010024   0.1594514), wk =   0.0020000
        k(  505) = (  -0.0010242   0.0010242   0.1629178), wk =   0.0020000
        k(  506) = (  -0.0010459   0.0010459   0.1663841), wk =   0.0020000
        k(  507) = (  -0.0010677   0.0010677   0.1698504), wk =   0.0020000
        k(  508) = (  -0.0010895   0.0010895   0.1733168), wk =   0.0020000
        k(  509) = (  -0.0011113   0.0011113   0.1767831), wk =   0.0020000
        k(  510) = (  -0.0011331   0.0011331   0.1802495), wk =   0.0020000
        k(  511) = (  -0.0011549   0.0011549   0.1837158), wk =   0.0020000
        k(  512) = (  -0.0011767   0.0011767   0.1871821), wk =   0.0020000
        k(  513) = (  -0.0011985   0.0011985   0.1906485), wk =   0.0020000
        k(  514) = (  -0.0012203   0.0012203   0.1941148), wk =   0.0020000
        k(  515) = (  -0.0012421   0.0012421   0.1975811), wk =   0.0020000
        k(  516) = (  -0.0012638   0.0012638   0.2010475), wk =   0.0020000
        k(  517) = (  -0.0012856   0.0012856   0.2045138), wk =   0.0020000
        k(  518) = (  -0.0013074   0.0013074   0.2079801), wk =   0.0020000
        k(  519) = (  -0.0013292   0.0013292   0.2114465), wk =   0.0020000
        k(  520) = (  -0.0013510   0.0013510   0.2149128), wk =   0.0020000
        k(  521) = (  -0.0013728   0.0013728   0.2183791), wk =   0.0020000
        k(  522) = (  -0.0013946   0.0013946   0.2218455), wk =   0.0020000
        k(  523) = (  -0.0014164   0.0014164   0.2253118), wk =   0.0020000
        k(  524) = (  -0.0014382   0.0014382   0.2287782), wk =   0.0020000
        k(  525) = (  -0.0014600   0.0014600   0.2322445), wk =   0.0020000
        k(  526) = (  -0.0014818   0.0014818   0.2357108), wk =   0.0020000
        k(  527) = (  -0.0015035   0.0015035   0.2391772), wk =   0.0020000
        k(  528) = (  -0.0015253   0.0015253   0.2426435), wk =   0.0020000
        k(  529) = (  -0.0015471   0.0015471   0.2461098), wk =   0.0020000
        k(  530) = (  -0.0015689   0.0015689   0.2495762), wk =   0.0020000
        k(  531) = (  -0.0015907   0.0015907   0.2530425), wk =   0.0020000
        k(  532) = (  -0.0016125   0.0016125   0.2565088), wk =   0.0020000
        k(  533) = (  -0.0016343   0.0016343   0.2599752), wk =   0.0020000
        k(  534) = (  -0.0016561   0.0016561   0.2634415), wk =   0.0020000
        k(  535) = (  -0.0016779   0.0016779   0.2669078), wk =   0.0020000
        k(  536) = (  -0.0016997   0.0016997   0.2703742), wk =   0.0020000
        k(  537) = (  -0.0017214   0.0017214   0.2738405), wk =   0.0020000
        k(  538) = (  -0.0017432   0.0017432   0.2773069), wk =   0.0020000
        k(  539) = (  -0.0017650   0.0017650   0.2807732), wk =   0.0020000
        k(  540) = (  -0.0017868   0.0017868   0.2842395), wk =   0.0020000
        k(  541) = (  -0.0018086   0.0018086   0.2877059), wk =   0.0020000
        k(  542) = (  -0.0018304   0.0018304   0.2911722), wk =   0.0020000
        k(  543) = (  -0.0018522   0.0018522   0.2946385), wk =   0.0020000
        k(  544) = (   0.0014833   0.0027448   0.2946539), wk =   0.0020000
        k(  545) = (   0.0048189   0.0036374   0.2946692), wk =   0.0020000
        k(  546) = (   0.0081544   0.0045301   0.2946846), wk =   0.0020000
        k(  547) = (   0.0114899   0.0054227   0.2946999), wk =   0.0020000
        k(  548) = (   0.0148254   0.0063153   0.2947153), wk =   0.0020000
        k(  549) = (   0.0181609   0.0072080   0.2947306), wk =   0.0020000
        k(  550) = (   0.0214965   0.0081006   0.2947459), wk =   0.0020000
        k(  551) = (   0.0248320   0.0089932   0.2947613), wk =   0.0020000
        k(  552) = (   0.0281675   0.0098859   0.2947766), wk =   0.0020000
        k(  553) = (   0.0315030   0.0107785   0.2947920), wk =   0.0020000
        k(  554) = (   0.0348386   0.0116711   0.2948073), wk =   0.0020000
        k(  555) = (   0.0381741   0.0125637   0.2948227), wk =   0.0020000
        k(  556) = (   0.0415096   0.0134564   0.2948380), wk =   0.0020000
        k(  557) = (   0.0448451   0.0143490   0.2948533), wk =   0.0020000
        k(  558) = (   0.0481807   0.0152416   0.2948687), wk =   0.0020000
        k(  559) = (   0.0515162   0.0161343   0.2948840), wk =   0.0020000
        k(  560) = (   0.0548517   0.0170269   0.2948994), wk =   0.0020000
        k(  561) = (   0.0581872   0.0179195   0.2949147), wk =   0.0020000
        k(  562) = (   0.0615227   0.0188121   0.2949301), wk =   0.0020000
        k(  563) = (   0.0648583   0.0197048   0.2949454), wk =   0.0020000
        k(  564) = (   0.0681938   0.0205974   0.2949607), wk =   0.0020000
        k(  565) = (   0.0715293   0.0214900   0.2949761), wk =   0.0020000
        k(  566) = (   0.0748648   0.0223827   0.2949914), wk =   0.0020000
        k(  567) = (   0.0782004   0.0232753   0.2950068), wk =   0.0020000
        k(  568) = (   0.0815359   0.0241679   0.2950221), wk =   0.0020000
        k(  569) = (   0.0848714   0.0250606   0.2950375), wk =   0.0020000
        k(  570) = (   0.0882069   0.0259532   0.2950528), wk =   0.0020000
        k(  571) = (   0.0915425   0.0268458   0.2950682), wk =   0.0020000
        k(  572) = (   0.0948780   0.0277384   0.2950835), wk =   0.0020000
        k(  573) = (   0.0982135   0.0286311   0.2950988), wk =   0.0020000
        k(  574) = (   0.1015490   0.0295237   0.2951142), wk =   0.0020000
        k(  575) = (   0.1048845   0.0304163   0.2951295), wk =   0.0020000
        k(  576) = (   0.1082201   0.0313090   0.2951449), wk =   0.0020000
        k(  577) = (   0.1115556   0.0322016   0.2951602), wk =   0.0020000
        k(  578) = (   0.1148911   0.0330942   0.2951756), wk =   0.0020000
        k(  579) = (   0.1182266   0.0339868   0.2951909), wk =   0.0020000
        k(  580) = (   0.1215622   0.0348795   0.2952062), wk =   0.0020000
        k(  581) = (   0.1248977   0.0357721   0.2952216), wk =   0.0020000
        k(  582) = (   0.1282332   0.0366647   0.2952369), wk =   0.0020000
        k(  583) = (   0.1315687   0.0375574   0.2952523), wk =   0.0020000
        k(  584) = (   0.1349042   0.0384500   0.2952676), wk =   0.0020000
        k(  585) = (   0.1382398   0.0393426   0.2952830), wk =   0.0020000
        k(  586) = (   0.1415753   0.0402353   0.2952983), wk =   0.0020000
        k(  587) = (   0.1449108   0.0411279   0.2953136), wk =   0.0020000
        k(  588) = (   0.1482463   0.0420205   0.2953290), wk =   0.0020000
        k(  589) = (   0.1515819   0.0429131   0.2953443), wk =   0.0020000
        k(  590) = (   0.1549174   0.0438058   0.2953597), wk =   0.0020000
        k(  591) = (   0.1582529   0.0446984   0.2953750), wk =   0.0020000
        k(  592) = (   0.1615884   0.0455910   0.2953904), wk =   0.0020000
        k(  593) = (   0.1649240   0.0464837   0.2954057), wk =   0.0020000
        k(  594) = (   0.1682595   0.0473763   0.2954211), wk =   0.0020000
        k(  595) = (   0.1715950   0.0482689   0.2954364), wk =   0.0020000
        k(  596) = (   0.1749305   0.0491615   0.2954517), wk =   0.0020000
        k(  597) = (   0.1782660   0.0500542   0.2954671), wk =   0.0020000
        k(  598) = (   0.1816016   0.0509468   0.2954824), wk =   0.0020000
        k(  599) = (   0.1849371   0.0518394   0.2954978), wk =   0.0020000
        k(  600) = (   0.1882726   0.0527321   0.2955131), wk =   0.0020000
        k(  601) = (   0.1916081   0.0536247   0.2955285), wk =   0.0020000
        k(  602) = (   0.1949437   0.0545173   0.2955438), wk =   0.0020000
        k(  603) = (   0.1982792   0.0554100   0.2955591), wk =   0.0020000
        k(  604) = (   0.2016147   0.0563026   0.2955745), wk =   0.0020000
        k(  605) = (   0.2049502   0.0571952   0.2955898), wk =   0.0020000
        k(  606) = (   0.2082858   0.0580878   0.2956052), wk =   0.0020000
        k(  607) = (   0.2116213   0.0589805   0.2956205), wk =   0.0020000
        k(  608) = (   0.2149568   0.0598731   0.2956359), wk =   0.0020000
        k(  609) = (   0.2182923   0.0607657   0.2956512), wk =   0.0020000
        k(  610) = (   0.2216278   0.0616584   0.2956665), wk =   0.0020000
        k(  611) = (   0.2249634   0.0625510   0.2956819), wk =   0.0020000
        k(  612) = (   0.2282989   0.0634436   0.2956972), wk =   0.0020000
        k(  613) = (   0.2316344   0.0643362   0.2957126), wk =   0.0020000
        k(  614) = (   0.2349699   0.0652289   0.2957279), wk =   0.0020000
        k(  615) = (   0.2383055   0.0661215   0.2957433), wk =   0.0020000
        k(  616) = (   0.2416410   0.0670141   0.2957586), wk =   0.0020000
        k(  617) = (   0.2449765   0.0679068   0.2957740), wk =   0.0020000
        k(  618) = (   0.2483120   0.0687994   0.2957893), wk =   0.0020000
        k(  619) = (   0.2516476   0.0696920   0.2958046), wk =   0.0020000
        k(  620) = (   0.2549831   0.0705847   0.2958200), wk =   0.0020000
        k(  621) = (   0.2583186   0.0714773   0.2958353), wk =   0.0020000
        k(  622) = (   0.2616541   0.0723699   0.2958507), wk =   0.0020000
        k(  623) = (   0.2649896   0.0732625   0.2958660), wk =   0.0020000
        k(  624) = (   0.2683252   0.0741552   0.2958814), wk =   0.0020000
        k(  625) = (   0.2716607   0.0750478   0.2958967), wk =   0.0020000
        k(  626) = (   0.2749962   0.0759404   0.2959120), wk =   0.0020000
        k(  627) = (   0.2783317   0.0768331   0.2959274), wk =   0.0020000
        k(  628) = (   0.2816673   0.0777257   0.2959427), wk =   0.0020000
        k(  629) = (   0.2850028   0.0786183   0.2959581), wk =   0.0020000
        k(  630) = (   0.2883383   0.0795109   0.2959734), wk =   0.0020000
        k(  631) = (   0.2916738   0.0804036   0.2959888), wk =   0.0020000
        k(  632) = (   0.2950093   0.0812962   0.2960041), wk =   0.0020000
        k(  633) = (   0.2983449   0.0821888   0.2960195), wk =   0.0020000
        k(  634) = (   0.3016804   0.0830815   0.2960348), wk =   0.0020000
        k(  635) = (   0.3050159   0.0839741   0.2960501), wk =   0.0020000
        k(  636) = (   0.3083514   0.0848667   0.2960655), wk =   0.0020000
        k(  637) = (   0.3116870   0.0857594   0.2960808), wk =   0.0020000
        k(  638) = (   0.3150225   0.0866520   0.2960962), wk =   0.0020000
        k(  639) = (   0.3183580   0.0875446   0.2961115), wk =   0.0020000
        k(  640) = (   0.3216935   0.0884372   0.2961269), wk =   0.0020000
        k(  641) = (   0.3250291   0.0893299   0.2961422), wk =   0.0020000
        k(  642) = (   0.3283646   0.0902225   0.2961575), wk =   0.0020000
        k(  643) = (   0.3317001   0.0911151   0.2961729), wk =   0.0020000
        k(  644) = (   0.3350356   0.0920078   0.2961882), wk =   0.0020000
        k(  645) = (   0.3383711   0.0929004   0.2962036), wk =   0.0020000
        k(  646) = (   0.3417067   0.0937930   0.2962189), wk =   0.0020000
        k(  647) = (   0.3450422   0.0946856   0.2962343), wk =   0.0020000
        k(  648) = (   0.3483777   0.0955783   0.2962496), wk =   0.0020000
        k(  649) = (   0.3517132   0.0964709   0.2962649), wk =   0.0020000
        k(  650) = (   0.3550488   0.0973635   0.2962803), wk =   0.0020000
        k(  651) = (   0.3583843   0.0982562   0.2962956), wk =   0.0020000
        k(  652) = (   0.3617198   0.0991488   0.2963110), wk =   0.0020000
        k(  653) = (   0.3650553   0.1000414   0.2963263), wk =   0.0020000
        k(  654) = (   0.3683909   0.1009341   0.2963417), wk =   0.0020000
        k(  655) = (   0.3717264   0.1018267   0.2963570), wk =   0.0020000
        k(  656) = (   0.3750619   0.1027193   0.2963724), wk =   0.0020000
        k(  657) = (   0.3783974   0.1036119   0.2963877), wk =   0.0020000
        k(  658) = (   0.3817329   0.1045046   0.2964030), wk =   0.0020000
        k(  659) = (   0.3850685   0.1053972   0.2964184), wk =   0.0020000
        k(  660) = (   0.3884040   0.1062898   0.2964337), wk =   0.0020000
        k(  661) = (   0.3917395   0.1071825   0.2964491), wk =   0.0020000
        k(  662) = (   0.3950750   0.1080751   0.2964644), wk =   0.0020000
        k(  663) = (   0.3984106   0.1089677   0.2964798), wk =   0.0020000
        k(  664) = (   0.4017461   0.1098603   0.2964951), wk =   0.0020000
        k(  665) = (   0.4050816   0.1107530   0.2965104), wk =   0.0020000
        k(  666) = (   0.4084171   0.1116456   0.2965258), wk =   0.0020000
        k(  667) = (   0.4117526   0.1125382   0.2965411), wk =   0.0020000
        k(  668) = (   0.4150882   0.1134309   0.2965565), wk =   0.0020000
        k(  669) = (   0.4184237   0.1143235   0.2965718), wk =   0.0020000
        k(  670) = (   0.4217592   0.1152161   0.2965872), wk =   0.0020000
        k(  671) = (   0.4250947   0.1161088   0.2966025), wk =   0.0020000
        k(  672) = (   0.4284303   0.1170014   0.2966178), wk =   0.0020000
        k(  673) = (   0.4317658   0.1178940   0.2966332), wk =   0.0020000
        k(  674) = (   0.4351013   0.1187866   0.2966485), wk =   0.0020000
        k(  675) = (   0.4384368   0.1196793   0.2966639), wk =   0.0020000
        k(  676) = (   0.4417724   0.1205719   0.2966792), wk =   0.0020000
        k(  677) = (   0.4451079   0.1214645   0.2966946), wk =   0.0020000
        k(  678) = (   0.4484434   0.1223572   0.2967099), wk =   0.0020000
        k(  679) = (   0.4517789   0.1232498   0.2967253), wk =   0.0020000
        k(  680) = (   0.4551144   0.1241424   0.2967406), wk =   0.0020000
        k(  681) = (   0.4584500   0.1250350   0.2967559), wk =   0.0020000
        k(  682) = (   0.4617855   0.1259277   0.2967713), wk =   0.0020000
        k(  683) = (   0.4651210   0.1268203   0.2967866), wk =   0.0020000
        k(  684) = (   0.4684565   0.1277129   0.2968020), wk =   0.0020000
        k(  685) = (   0.4717921   0.1286056   0.2968173), wk =   0.0020000
        k(  686) = (   0.4751276   0.1294982   0.2968327), wk =   0.0020000
        k(  687) = (   0.4784631   0.1303908   0.2968480), wk =   0.0020000
        k(  688) = (   0.4817986   0.1312835   0.2968633), wk =   0.0020000
        k(  689) = (   0.4851342   0.1321761   0.2968787), wk =   0.0020000
        k(  690) = (   0.4884697   0.1330687   0.2968940), wk =   0.0020000
        k(  691) = (   0.4918052   0.1339613   0.2969094), wk =   0.0020000
        k(  692) = (   0.4951407   0.1348540   0.2969247), wk =   0.0020000
        k(  693) = (   0.4984762   0.1357466   0.2969401), wk =   0.0020000
        k(  694) = (   0.5018118   0.1366392   0.2969554), wk =   0.0020000
        k(  695) = (   0.5051473   0.1375319   0.2969707), wk =   0.0020000
        k(  696) = (   0.5084828   0.1384245   0.2969861), wk =   0.0020000
        k(  697) = (   0.5118183   0.1393171   0.2970014), wk =   0.0020000
        k(  698) = (   0.5151539   0.1402097   0.2970168), wk =   0.0020000
        k(  699) = (   0.5184894   0.1411024   0.2970321), wk =   0.0020000
        k(  700) = (   0.5218249   0.1419950   0.2970475), wk =   0.0020000
        k(  701) = (   0.5251604   0.1428876   0.2970628), wk =   0.0020000
        k(  702) = (   0.5284960   0.1437803   0.2970782), wk =   0.0020000
        k(  703) = (   0.5318315   0.1446729   0.2970935), wk =   0.0020000
        k(  704) = (   0.5351670   0.1455655   0.2971088), wk =   0.0020000
        k(  705) = (   0.5385025   0.1464582   0.2971242), wk =   0.0020000
        k(  706) = (   0.5418380   0.1473508   0.2971395), wk =   0.0020000
        k(  707) = (   0.5451736   0.1482434   0.2971549), wk =   0.0020000
        k(  708) = (   0.5485091   0.1491360   0.2971702), wk =   0.0020000
        k(  709) = (   0.5518446   0.1500287   0.2971856), wk =   0.0020000
        k(  710) = (   0.5551801   0.1509213   0.2972009), wk =   0.0020000
        k(  711) = (   0.5542932   0.1542402   0.2971745), wk =   0.0020000
        k(  712) = (   0.5534063   0.1575591   0.2971481), wk =   0.0020000
        k(  713) = (   0.5525194   0.1608780   0.2971217), wk =   0.0020000
        k(  714) = (   0.5516325   0.1641969   0.2970952), wk =   0.0020000
        k(  715) = (   0.5507456   0.1675158   0.2970688), wk =   0.0020000
        k(  716) = (   0.5498587   0.1708347   0.2970424), wk =   0.0020000
        k(  717) = (   0.5489718   0.1741536   0.2970160), wk =   0.0020000
        k(  718) = (   0.5480849   0.1774725   0.2969896), wk =   0.0020000
        k(  719) = (   0.5471980   0.1807914   0.2969632), wk =   0.0020000
        k(  720) = (   0.5463111   0.1841103   0.2969367), wk =   0.0020000
        k(  721) = (   0.5454242   0.1874292   0.2969103), wk =   0.0020000
        k(  722) = (   0.5445373   0.1907481   0.2968839), wk =   0.0020000
        k(  723) = (   0.5436504   0.1940670   0.2968575), wk =   0.0020000
        k(  724) = (   0.5427635   0.1973859   0.2968311), wk =   0.0020000
        k(  725) = (   0.5418766   0.2007048   0.2968047), wk =   0.0020000
        k(  726) = (   0.5409897   0.2040238   0.2967782), wk =   0.0020000
        k(  727) = (   0.5401028   0.2073427   0.2967518), wk =   0.0020000
        k(  728) = (   0.5392159   0.2106616   0.2967254), wk =   0.0020000
        k(  729) = (   0.5383290   0.2139805   0.2966990), wk =   0.0020000
        k(  730) = (   0.5374421   0.2172994   0.2966726), wk =   0.0020000
        k(  731) = (   0.5365552   0.2206183   0.2966462), wk =   0.0020000
        k(  732) = (   0.5356683   0.2239372   0.2966197), wk =   0.0020000
        k(  733) = (   0.5347814   0.2272561   0.2965933), wk =   0.0020000
        k(  734) = (   0.5338945   0.2305750   0.2965669), wk =   0.0020000
        k(  735) = (   0.5330076   0.2338939   0.2965405), wk =   0.0020000
        k(  736) = (   0.5321206   0.2372128   0.2965141), wk =   0.0020000
        k(  737) = (   0.5312337   0.2405317   0.2964877), wk =   0.0020000
        k(  738) = (   0.5303468   0.2438506   0.2964612), wk =   0.0020000
        k(  739) = (   0.5294599   0.2471695   0.2964348), wk =   0.0020000
        k(  740) = (   0.5285730   0.2504884   0.2964084), wk =   0.0020000
        k(  741) = (   0.5276861   0.2538073   0.2963820), wk =   0.0020000
        k(  742) = (   0.5267992   0.2571262   0.2963556), wk =   0.0020000
        k(  743) = (   0.5259123   0.2604451   0.2963292), wk =   0.0020000
        k(  744) = (   0.5250254   0.2637640   0.2963028), wk =   0.0020000
        k(  745) = (   0.5241385   0.2670829   0.2962763), wk =   0.0020000
        k(  746) = (   0.5232516   0.2704018   0.2962499), wk =   0.0020000
        k(  747) = (   0.5223647   0.2737207   0.2962235), wk =   0.0020000
        k(  748) = (   0.5214778   0.2770396   0.2961971), wk =   0.0020000
        k(  749) = (   0.5205909   0.2803585   0.2961707), wk =   0.0020000
        k(  750) = (   0.5197040   0.2836774   0.2961443), wk =   0.0020000
        k(  751) = (   0.5188171   0.2869963   0.2961178), wk =   0.0020000
        k(  752) = (   0.5179302   0.2903152   0.2960914), wk =   0.0020000
        k(  753) = (   0.5170433   0.2936341   0.2960650), wk =   0.0020000
        k(  754) = (   0.5161564   0.2969530   0.2960386), wk =   0.0020000
        k(  755) = (   0.5152695   0.3002719   0.2960122), wk =   0.0020000
        k(  756) = (   0.5143826   0.3035908   0.2959858), wk =   0.0020000
        k(  757) = (   0.5134957   0.3069097   0.2959593), wk =   0.0020000
        k(  758) = (   0.5126088   0.3102286   0.2959329), wk =   0.0020000
        k(  759) = (   0.5117219   0.3135475   0.2959065), wk =   0.0020000
        k(  760) = (   0.5108350   0.3168665   0.2958801), wk =   0.0020000
        k(  761) = (   0.5099481   0.3201854   0.2958537), wk =   0.0020000
        k(  762) = (   0.5090612   0.3235043   0.2958273), wk =   0.0020000
        k(  763) = (   0.5081743   0.3268232   0.2958008), wk =   0.0020000
        k(  764) = (   0.5072874   0.3301421   0.2957744), wk =   0.0020000
        k(  765) = (   0.5064005   0.3334610   0.2957480), wk =   0.0020000
        k(  766) = (   0.5055135   0.3367799   0.2957216), wk =   0.0020000
        k(  767) = (   0.5046266   0.3400988   0.2956952), wk =   0.0020000
        k(  768) = (   0.5037397   0.3434177   0.2956688), wk =   0.0020000
        k(  769) = (   0.5028528   0.3467366   0.2956423), wk =   0.0020000
        k(  770) = (   0.5019659   0.3500555   0.2956159), wk =   0.0020000
        k(  771) = (   0.5010790   0.3533744   0.2955895), wk =   0.0020000
        k(  772) = (   0.5001921   0.3566933   0.2955631), wk =   0.0020000
        k(  773) = (   0.4993052   0.3600122   0.2955367), wk =   0.0020000
        k(  774) = (   0.4984183   0.3633311   0.2955103), wk =   0.0020000
        k(  775) = (   0.4975314   0.3666500   0.2954839), wk =   0.0020000
        k(  776) = (   0.4966445   0.3699689   0.2954574), wk =   0.0020000
        k(  777) = (   0.4957576   0.3732878   0.2954310), wk =   0.0020000
        k(  778) = (   0.4948707   0.3766067   0.2954046), wk =   0.0020000
        k(  779) = (   0.4939838   0.3799256   0.2953782), wk =   0.0020000
        k(  780) = (   0.4930969   0.3832445   0.2953518), wk =   0.0020000
        k(  781) = (   0.4922100   0.3865634   0.2953254), wk =   0.0020000
        k(  782) = (   0.4913231   0.3898823   0.2952989), wk =   0.0020000
        k(  783) = (   0.4904362   0.3932012   0.2952725), wk =   0.0020000
        k(  784) = (   0.4895493   0.3965201   0.2952461), wk =   0.0020000
        k(  785) = (   0.4886624   0.3998390   0.2952197), wk =   0.0020000
        k(  786) = (   0.4877755   0.4031579   0.2951933), wk =   0.0020000
        k(  787) = (   0.4868886   0.4064768   0.2951669), wk =   0.0020000
        k(  788) = (   0.4860017   0.4097957   0.2951404), wk =   0.0020000
        k(  789) = (   0.4851148   0.4131146   0.2951140), wk =   0.0020000
        k(  790) = (   0.4842279   0.4164335   0.2950876), wk =   0.0020000
        k(  791) = (   0.4833410   0.4197524   0.2950612), wk =   0.0020000
        k(  792) = (   0.4824541   0.4230713   0.2950348), wk =   0.0020000
        k(  793) = (   0.4815672   0.4263903   0.2950084), wk =   0.0020000
        k(  794) = (   0.4806803   0.4297092   0.2949819), wk =   0.0020000
        k(  795) = (   0.4797934   0.4330281   0.2949555), wk =   0.0020000
        k(  796) = (   0.4789064   0.4363470   0.2949291), wk =   0.0020000
        k(  797) = (   0.4780195   0.4396659   0.2949027), wk =   0.0020000
        k(  798) = (   0.4771326   0.4429848   0.2948763), wk =   0.0020000
        k(  799) = (   0.4762457   0.4463037   0.2948499), wk =   0.0020000
        k(  800) = (   0.4753588   0.4496226   0.2948234), wk =   0.0020000
        k(  801) = (   0.4744719   0.4529415   0.2947970), wk =   0.0020000
        k(  802) = (   0.4735850   0.4562604   0.2947706), wk =   0.0020000
        k(  803) = (   0.4726981   0.4595793   0.2947442), wk =   0.0020000
        k(  804) = (   0.4718112   0.4628982   0.2947178), wk =   0.0020000
        k(  805) = (   0.4709243   0.4662171   0.2946914), wk =   0.0020000
        k(  806) = (   0.4700374   0.4695360   0.2946650), wk =   0.0020000
        k(  807) = (   0.4691505   0.4728549   0.2946385), wk =   0.0020000
        k(  808) = (   0.4667101   0.4704145   0.2946385), wk =   0.0020000
        k(  809) = (   0.4642697   0.4679740   0.2946385), wk =   0.0020000
        k(  810) = (   0.4618292   0.4655336   0.2946385), wk =   0.0020000
        k(  811) = (   0.4593888   0.4630932   0.2946385), wk =   0.0020000
        k(  812) = (   0.4569484   0.4606527   0.2946385), wk =   0.0020000
        k(  813) = (   0.4545079   0.4582123   0.2946385), wk =   0.0020000
        k(  814) = (   0.4520675   0.4557719   0.2946385), wk =   0.0020000
        k(  815) = (   0.4496271   0.4533315   0.2946385), wk =   0.0020000
        k(  816) = (   0.4471867   0.4508910   0.2946385), wk =   0.0020000
        k(  817) = (   0.4447462   0.4484506   0.2946385), wk =   0.0020000
        k(  818) = (   0.4423058   0.4460102   0.2946385), wk =   0.0020000
        k(  819) = (   0.4398654   0.4435698   0.2946385), wk =   0.0020000
        k(  820) = (   0.4374249   0.4411293   0.2946385), wk =   0.0020000
        k(  821) = (   0.4349845   0.4386889   0.2946385), wk =   0.0020000
        k(  822) = (   0.4325441   0.4362485   0.2946385), wk =   0.0020000
        k(  823) = (   0.4301037   0.4338080   0.2946385), wk =   0.0020000
        k(  824) = (   0.4276632   0.4313676   0.2946385), wk =   0.0020000
        k(  825) = (   0.4252228   0.4289272   0.2946385), wk =   0.0020000
        k(  826) = (   0.4227824   0.4264868   0.2946385), wk =   0.0020000
        k(  827) = (   0.4203419   0.4240463   0.2946385), wk =   0.0020000
        k(  828) = (   0.4179015   0.4216059   0.2946385), wk =   0.0020000
        k(  829) = (   0.4154611   0.4191655   0.2946385), wk =   0.0020000
        k(  830) = (   0.4130207   0.4167250   0.2946385), wk =   0.0020000
        k(  831) = (   0.4105802   0.4142846   0.2946385), wk =   0.0020000
        k(  832) = (   0.4081398   0.4118442   0.2946385), wk =   0.0020000
        k(  833) = (   0.4056994   0.4094038   0.2946385), wk =   0.0020000
        k(  834) = (   0.4032589   0.4069633   0.2946385), wk =   0.0020000
        k(  835) = (   0.4008185   0.4045229   0.2946385), wk =   0.0020000
        k(  836) = (   0.3983781   0.4020825   0.2946385), wk =   0.0020000
        k(  837) = (   0.3959377   0.3996420   0.2946385), wk =   0.0020000
        k(  838) = (   0.3934972   0.3972016   0.2946385), wk =   0.0020000
        k(  839) = (   0.3910568   0.3947612   0.2946385), wk =   0.0020000
        k(  840) = (   0.3886164   0.3923208   0.2946385), wk =   0.0020000
        k(  841) = (   0.3861759   0.3898803   0.2946385), wk =   0.0020000
        k(  842) = (   0.3837355   0.3874399   0.2946385), wk =   0.0020000
        k(  843) = (   0.3812951   0.3849995   0.2946385), wk =   0.0020000
        k(  844) = (   0.3788547   0.3825590   0.2946385), wk =   0.0020000
        k(  845) = (   0.3764142   0.3801186   0.2946385), wk =   0.0020000
        k(  846) = (   0.3739738   0.3776782   0.2946385), wk =   0.0020000
        k(  847) = (   0.3715334   0.3752378   0.2946385), wk =   0.0020000
        k(  848) = (   0.3690929   0.3727973   0.2946385), wk =   0.0020000
        k(  849) = (   0.3666525   0.3703569   0.2946385), wk =   0.0020000
        k(  850) = (   0.3642121   0.3679165   0.2946385), wk =   0.0020000
        k(  851) = (   0.3617717   0.3654760   0.2946385), wk =   0.0020000
        k(  852) = (   0.3593312   0.3630356   0.2946385), wk =   0.0020000
        k(  853) = (   0.3568908   0.3605952   0.2946385), wk =   0.0020000
        k(  854) = (   0.3544504   0.3581548   0.2946385), wk =   0.0020000
        k(  855) = (   0.3520099   0.3557143   0.2946385), wk =   0.0020000
        k(  856) = (   0.3495695   0.3532739   0.2946385), wk =   0.0020000
        k(  857) = (   0.3471291   0.3508335   0.2946385), wk =   0.0020000
        k(  858) = (   0.3446887   0.3483930   0.2946385), wk =   0.0020000
        k(  859) = (   0.3422482   0.3459526   0.2946385), wk =   0.0020000
        k(  860) = (   0.3398078   0.3435122   0.2946385), wk =   0.0020000
        k(  861) = (   0.3373674   0.3410718   0.2946385), wk =   0.0020000
        k(  862) = (   0.3349269   0.3386313   0.2946385), wk =   0.0020000
        k(  863) = (   0.3324865   0.3361909   0.2946385), wk =   0.0020000
        k(  864) = (   0.3300461   0.3337505   0.2946385), wk =   0.0020000
        k(  865) = (   0.3276057   0.3313100   0.2946385), wk =   0.0020000
        k(  866) = (   0.3251652   0.3288696   0.2946385), wk =   0.0020000
        k(  867) = (   0.3227248   0.3264292   0.2946385), wk =   0.0020000
        k(  868) = (   0.3202844   0.3239888   0.2946385), wk =   0.0020000
        k(  869) = (   0.3178439   0.3215483   0.2946385), wk =   0.0020000
        k(  870) = (   0.3154035   0.3191079   0.2946385), wk =   0.0020000
        k(  871) = (   0.3129631   0.3166675   0.2946385), wk =   0.0020000
        k(  872) = (   0.3105227   0.3142270   0.2946385), wk =   0.0020000
        k(  873) = (   0.3080822   0.3117866   0.2946385), wk =   0.0020000
        k(  874) = (   0.3056418   0.3093462   0.2946385), wk =   0.0020000
        k(  875) = (   0.3032014   0.3069058   0.2946385), wk =   0.0020000
        k(  876) = (   0.3007609   0.3044653   0.2946385), wk =   0.0020000
        k(  877) = (   0.2983205   0.3020249   0.2946385), wk =   0.0020000
        k(  878) = (   0.2958801   0.2995845   0.2946385), wk =   0.0020000
        k(  879) = (   0.2934397   0.2971440   0.2946385), wk =   0.0020000
        k(  880) = (   0.2909992   0.2947036   0.2946385), wk =   0.0020000
        k(  881) = (   0.2885588   0.2922632   0.2946385), wk =   0.0020000
        k(  882) = (   0.2861184   0.2898228   0.2946385), wk =   0.0020000
        k(  883) = (   0.2836779   0.2873823   0.2946385), wk =   0.0020000
        k(  884) = (   0.2812375   0.2849419   0.2946385), wk =   0.0020000
        k(  885) = (   0.2787971   0.2825015   0.2946385), wk =   0.0020000
        k(  886) = (   0.2763567   0.2800610   0.2946385), wk =   0.0020000
        k(  887) = (   0.2739162   0.2776206   0.2946385), wk =   0.0020000
        k(  888) = (   0.2714758   0.2751802   0.2946385), wk =   0.0020000
        k(  889) = (   0.2690354   0.2727398   0.2946385), wk =   0.0020000
        k(  890) = (   0.2665949   0.2702993   0.2946385), wk =   0.0020000
        k(  891) = (   0.2641545   0.2678589   0.2946385), wk =   0.0020000
        k(  892) = (   0.2617141   0.2654185   0.2946385), wk =   0.0020000
        k(  893) = (   0.2592737   0.2629780   0.2946385), wk =   0.0020000
        k(  894) = (   0.2568332   0.2605376   0.2946385), wk =   0.0020000
        k(  895) = (   0.2543928   0.2580972   0.2946385), wk =   0.0020000
        k(  896) = (   0.2519524   0.2556568   0.2946385), wk =   0.0020000
        k(  897) = (   0.2495119   0.2532163   0.2946385), wk =   0.0020000
        k(  898) = (   0.2470715   0.2507759   0.2946385), wk =   0.0020000
        k(  899) = (   0.2446311   0.2483355   0.2946385), wk =   0.0020000
        k(  900) = (   0.2421907   0.2458950   0.2946385), wk =   0.0020000
        k(  901) = (   0.2397502   0.2434546   0.2946385), wk =   0.0020000
        k(  902) = (   0.2373098   0.2410142   0.2946385), wk =   0.0020000
        k(  903) = (   0.2348694   0.2385738   0.2946385), wk =   0.0020000
        k(  904) = (   0.2324289   0.2361333   0.2946385), wk =   0.0020000
        k(  905) = (   0.2299885   0.2336929   0.2946385), wk =   0.0020000
        k(  906) = (   0.2275481   0.2312525   0.2946385), wk =   0.0020000
        k(  907) = (   0.2251077   0.2288120   0.2946385), wk =   0.0020000
        k(  908) = (   0.2226672   0.2263716   0.2946385), wk =   0.0020000
        k(  909) = (   0.2202268   0.2239312   0.2946385), wk =   0.0020000
        k(  910) = (   0.2177864   0.2214908   0.2946385), wk =   0.0020000
        k(  911) = (   0.2153459   0.2190503   0.2946385), wk =   0.0020000
        k(  912) = (   0.2129055   0.2166099   0.2946385), wk =   0.0020000
        k(  913) = (   0.2104651   0.2141695   0.2946385), wk =   0.0020000
        k(  914) = (   0.2080247   0.2117290   0.2946385), wk =   0.0020000
        k(  915) = (   0.2055842   0.2092886   0.2946385), wk =   0.0020000
        k(  916) = (   0.2031438   0.2068482   0.2946385), wk =   0.0020000
        k(  917) = (   0.2007034   0.2044078   0.2946385), wk =   0.0020000
        k(  918) = (   0.1982629   0.2019673   0.2946385), wk =   0.0020000
        k(  919) = (   0.1958225   0.1995269   0.2946385), wk =   0.0020000
        k(  920) = (   0.1933821   0.1970865   0.2946385), wk =   0.0020000
        k(  921) = (   0.1909417   0.1946460   0.2946385), wk =   0.0020000
        k(  922) = (   0.1885012   0.1922056   0.2946385), wk =   0.0020000
        k(  923) = (   0.1860608   0.1897652   0.2946385), wk =   0.0020000
        k(  924) = (   0.1836204   0.1873248   0.2946385), wk =   0.0020000
        k(  925) = (   0.1811799   0.1848843   0.2946385), wk =   0.0020000
        k(  926) = (   0.1787395   0.1824439   0.2946385), wk =   0.0020000
        k(  927) = (   0.1762991   0.1800035   0.2946385), wk =   0.0020000
        k(  928) = (   0.1738587   0.1775630   0.2946385), wk =   0.0020000
        k(  929) = (   0.1714182   0.1751226   0.2946385), wk =   0.0020000
        k(  930) = (   0.1689778   0.1726822   0.2946385), wk =   0.0020000
        k(  931) = (   0.1665374   0.1702418   0.2946385), wk =   0.0020000
        k(  932) = (   0.1640969   0.1678013   0.2946385), wk =   0.0020000
        k(  933) = (   0.1616565   0.1653609   0.2946385), wk =   0.0020000
        k(  934) = (   0.1592161   0.1629205   0.2946385), wk =   0.0020000
        k(  935) = (   0.1567757   0.1604800   0.2946385), wk =   0.0020000
        k(  936) = (   0.1543352   0.1580396   0.2946385), wk =   0.0020000
        k(  937) = (   0.1518948   0.1555992   0.2946385), wk =   0.0020000
        k(  938) = (   0.1494544   0.1531588   0.2946385), wk =   0.0020000
        k(  939) = (   0.1470139   0.1507183   0.2946385), wk =   0.0020000
        k(  940) = (   0.1445735   0.1482779   0.2946385), wk =   0.0020000
        k(  941) = (   0.1421331   0.1458375   0.2946385), wk =   0.0020000
        k(  942) = (   0.1396927   0.1433970   0.2946385), wk =   0.0020000
        k(  943) = (   0.1372522   0.1409566   0.2946385), wk =   0.0020000
        k(  944) = (   0.1348118   0.1385162   0.2946385), wk =   0.0020000
        k(  945) = (   0.1323714   0.1360758   0.2946385), wk =   0.0020000
        k(  946) = (   0.1299309   0.1336353   0.2946385), wk =   0.0020000
        k(  947) = (   0.1274905   0.1311949   0.2946385), wk =   0.0020000
        k(  948) = (   0.1250501   0.1287545   0.2946385), wk =   0.0020000
        k(  949) = (   0.1226097   0.1263140   0.2946385), wk =   0.0020000
        k(  950) = (   0.1201692   0.1238736   0.2946385), wk =   0.0020000
        k(  951) = (   0.1177288   0.1214332   0.2946385), wk =   0.0020000
        k(  952) = (   0.1152884   0.1189928   0.2946385), wk =   0.0020000
        k(  953) = (   0.1128479   0.1165523   0.2946385), wk =   0.0020000
        k(  954) = (   0.1104075   0.1141119   0.2946385), wk =   0.0020000
        k(  955) = (   0.1079671   0.1116715   0.2946385), wk =   0.0020000
        k(  956) = (   0.1055267   0.1092310   0.2946385), wk =   0.0020000
        k(  957) = (   0.1030862   0.1067906   0.2946385), wk =   0.0020000
        k(  958) = (   0.1006458   0.1043502   0.2946385), wk =   0.0020000
        k(  959) = (   0.0982054   0.1019098   0.2946385), wk =   0.0020000
        k(  960) = (   0.0957649   0.0994693   0.2946385), wk =   0.0020000
        k(  961) = (   0.0933245   0.0970289   0.2946385), wk =   0.0020000
        k(  962) = (   0.0908841   0.0945885   0.2946385), wk =   0.0020000
        k(  963) = (   0.0884437   0.0921480   0.2946385), wk =   0.0020000
        k(  964) = (   0.0860032   0.0897076   0.2946385), wk =   0.0020000
        k(  965) = (   0.0835628   0.0872672   0.2946385), wk =   0.0020000
        k(  966) = (   0.0811224   0.0848268   0.2946385), wk =   0.0020000
        k(  967) = (   0.0786820   0.0823863   0.2946385), wk =   0.0020000
        k(  968) = (   0.0762415   0.0799459   0.2946385), wk =   0.0020000
        k(  969) = (   0.0738011   0.0775055   0.2946385), wk =   0.0020000
        k(  970) = (   0.0713607   0.0750650   0.2946385), wk =   0.0020000
        k(  971) = (   0.0689202   0.0726246   0.2946385), wk =   0.0020000
        k(  972) = (   0.0664798   0.0701842   0.2946385), wk =   0.0020000
        k(  973) = (   0.0640394   0.0677438   0.2946385), wk =   0.0020000
[...]
   -37.7736 -37.7646 -37.7645 -23.8473 -23.8441 -23.8339  -3.8123  -3.2968
     6.0389   6.4356   7.3761   8.0376   8.7488   9.1721  10.3416  10.6948
    11.3868  12.7306  13.2064  16.6362  17.7777  18.5040  18.6771  19.7430
    20.2734  20.7440  21.2891  23.8873  24.0983  24.1895  25.4573  25.4762

          k = 0.0909 0.0946 0.2946 (  4332 PWs)   bands (ev):

   -47.2957 -37.7901 -37.7898 -37.7896 -37.7890 -37.7746 -37.7743 -37.7741
   -37.7736 -37.7647 -37.7645 -23.8474 -23.8436 -23.8338  -3.8192  -3.3003
     6.0326   6.4558   7.3755   8.0212   8.7859   9.1956  10.3399  10.6813
    11.3742  12.7543  13.2187  16.6008  17.7503  18.5232  18.7028  19.7190
    20.2911  20.7453  21.2716  23.8588  24.1227  24.1994  25.4594  25.4787

          k = 0.0884 0.0921 0.2946 (  4332 PWs)   bands (ev):

   -47.2957 -37.7901 -37.7898 -37.7896 -37.7891 -37.7746 -37.7743 -37.7741
   -37.7736 -37.7647 -37.7645 -23.8476 -23.8430 -23.8336  -3.8259  -3.3038
     6.0265   6.4761   7.3748   8.0045   8.8230   9.2190  10.3381  10.6676
    11.3613  12.7782  13.2307  16.5658  17.7231  18.5423  18.7284  19.6945
    20.3086  20.7477  21.2546  23.8281  24.1460  24.2101  25.4635  25.4825

          k = 0.0860 0.0897 0.2946 (  4332 PWs)   bands (ev):

   -47.2957 -37.7901 -37.7898 -37.7896 -37.7891 -37.7746 -37.7743 -37.7741
   -37.7736 -37.7647 -37.7646 -23.8477 -23.8425 -23.8335  -3.8324  -3.3072
     6.0204   6.4965   7.3741   7.9876   8.8603   9.2424  10.3363  10.6536
    11.3482  12.8024  13.2425  16.5309  17.6961  18.5615  18.7539  19.6696
    20.3258  20.7509  21.2379  23.7958  24.1681  24.2212  25.4694  25.4876

          k = 0.0836 0.0873 0.2946 (  4332 PWs)   bands (ev):

   -47.2958 -37.7901 -37.7898 -37.7896 -37.7891 -37.7746 -37.7743 -37.7741
   -37.7736 -37.7647 -37.7646 -23.8478 -23.8419 -23.8334  -3.8387  -3.3105
     6.0144   6.5170   7.3733   7.9705   8.8975   9.2656  10.3343  10.6393
    11.3348  12.8268  13.2539  16.4963  17.6694  18.5808  18.7792  19.6445
    20.3429  20.7549  21.2216  23.7620  24.1889  24.2326  25.4770  25.4941

          k = 0.0811 0.0848 0.2946 (  4332 PWs)   bands (ev):

   -47.2958 -37.7901 -37.7898 -37.7896 -37.7891 -37.7746 -37.7743 -37.7741
   -37.7736 -37.7647 -37.7646 -23.8479 -23.8414 -23.8332  -3.8449  -3.3137
     6.0086   6.5375   7.3724   7.9531   8.9347   9.2889  10.3322  10.6248
    11.3212  12.8514  13.2652  16.4620  17.6431  18.6001  18.8043  19.6193
    20.3596  20.7595  21.2058  23.7273  24.2084  24.2441  25.4862  25.5020

          k = 0.0787 0.0824 0.2946 (  4332 PWs)   bands (ev):

   -47.2959 -37.7901 -37.7898 -37.7896 -37.7891 -37.7746 -37.7743 -37.7741
   -37.7736 -37.7647 -37.7646 -23.8481 -23.8409 -23.8331  -3.8510  -3.3169
     6.0029   6.5582   7.3715   7.9356   8.9719   9.3120  10.3300  10.6101
    11.3074  12.8761  13.2761  16.4280  17.6171  18.6193  18.8292  19.5941
    20.3760  20.7648  21.1905  23.6917  24.2267  24.2555  25.4968  25.5113

          k = 0.0762 0.0799 0.2946 (  4332 PWs)   bands (ev):

   -47.2959 -37.7901 -37.7899 -37.7896 -37.7892 -37.7746 -37.7743 -37.7741
   -37.7736 -37.7647 -37.7646 -23.8482 -23.8404 -23.8330  -3.8568  -3.3199
     5.9973   6.5789   7.3706   7.9178   9.0091   9.3351  10.3277  10.5952
    11.2934  12.9009  13.2867  16.3943  17.5915  18.6386  18.8539  19.5691
    20.3920  20.7705  21.1755  23.6555  24.2436  24.2668  25.5088  25.5220

          k = 0.0738 0.0775 0.2946 (  4330 PWs)   bands (ev):

   -47.2959 -37.7901 -37.7898 -37.7896 -37.7892 -37.7746 -37.7743 -37.7740
   -37.7733 -37.7647 -37.7645 -23.8483 -23.8399 -23.8329  -3.8625  -3.3229
     5.9918   6.5996   7.3696   7.8999   9.0462   9.3581  10.3253  10.5801
    11.2792  12.9258  13.2971  16.3610  17.5663  18.6578  18.8782  19.5444
    20.4075  20.7766  21.1613  23.6189  24.2594  24.2786  25.5220  25.5340

          k = 0.0714 0.0751 0.2946 (  4326 PWs)   bands (ev):

   -47.2960 -37.7901 -37.7896 -37.7894 -37.7888 -37.7745 -37.7743 -37.7740
   -37.7733 -37.7646 -37.7644 -23.8484 -23.8394 -23.8328  -3.8680  -3.3258
     5.9865   6.6205   7.3686   7.8818   9.0832   9.3810  10.3227  10.5648
    11.2649  12.9506  13.3072  16.3280  17.5416  18.6769  18.9023  19.5204
    20.4229  20.7830  21.1478  23.5821  24.2738  24.2895  25.5363  25.5473

          k = 0.0689 0.0726 0.2946 (  4326 PWs)   bands (ev):

   -47.2960 -37.7901 -37.7896 -37.7894 -37.7888 -37.7745 -37.7743 -37.7740
   -37.7733 -37.7646 -37.7644 -23.8485 -23.8390 -23.8326  -3.8734  -3.3286
     5.9813   6.6414   7.3676   7.8635   9.1201   9.4038  10.3199  10.5493
    11.2504  12.9755  13.3169  16.2955  17.5174  18.6959  18.9259  19.4964
    20.4376  20.7897  21.1342  23.5451  24.2871  24.3001  25.5366  25.5517

          k = 0.0665 0.0702 0.2946 (  4326 PWs)   bands (ev):

   -47.2960 -37.7902 -37.7897 -37.7893 -37.7889 -37.7745 -37.7743 -37.7741
   -37.7732 -37.7646 -37.7643 -23.8486 -23.8385 -23.8325  -3.8786  -3.3313
     5.9763   6.6623   7.3665   7.8451   9.1568   9.4266  10.3169  10.5336
    11.2357  13.0002  13.3264  16.2634  17.4938  18.7146  18.9491  19.4730
    20.4517  20.7965  21.1209  23.5081  24.2994  24.3106  25.4979  25.5681

          k = 0.0640 0.0677 0.2946 (  4324 PWs)   bands (ev):

   -47.2961 -37.7900 -37.7897 -37.7893 -37.7889 -37.7745 -37.7743 -37.7740
   -37.7728 -37.7646 -37.7643 -23.8487 -23.8381 -23.8324  -3.8836  -3.3339
     5.9714   6.6833   7.3655   7.8265   9.1934   9.4492  10.3137  10.5177
    11.2209  13.0248  13.3355  16.2317  17.4706  18.7335  18.9717  19.4502
    20.4653  20.8036  21.1085  23.4713  24.3106  24.3212  25.4601  25.5852

          k = 0.0616 0.0653 0.2946 (  4326 PWs)   bands (ev):

   -47.2961 -37.7902 -37.7900 -37.7893 -37.7889 -37.7745 -37.7743 -37.7740
   -37.7728 -37.7647 -37.7643 -23.8488 -23.8377 -23.8323  -3.8884  -3.3364
     5.9667   6.7044   7.3644   7.8077   9.2298   9.4717  10.3103  10.5017
    11.2060  13.0492  13.3443  16.2005  17.4481  18.7518  18.9938  19.4281
    20.4782  20.8105  21.0964  23.4347  24.3208  24.3307  25.4230  25.6030

          k = 0.0592 0.0629 0.2946 (  4324 PWs)   bands (ev):

   -47.2961 -37.7903 -37.7900 -37.7892 -37.7888 -37.7742 -37.7741 -37.7739
   -37.7728 -37.7647 -37.7644 -23.8489 -23.8373 -23.8322  -3.8931  -3.3388
     5.9621   6.7255   7.3633   7.7888   9.2659   9.4942  10.3067  10.4856
    11.1911  13.0735  13.3528  16.1698  17.4262  18.7700  19.0150  19.4069
    20.4904  20.8177  21.0849  23.3984  24.3309  24.3401  25.3869  25.6222

          k = 0.0567 0.0604 0.2946 (  4324 PWs)   bands (ev):

   -47.2962 -37.7903 -37.7900 -37.7892 -37.7888 -37.7742 -37.7741 -37.7739
   -37.7728 -37.7647 -37.7644 -23.8490 -23.8369 -23.8321  -3.8976  -3.3412
     5.9577   6.7467   7.3623   7.7697   9.3018   9.5166  10.3027  10.4693
    11.1761  13.0975  13.3609  16.1398  17.4049  18.7880  19.0355  19.3866
    20.5022  20.8250  21.0739  23.3627  24.3395  24.3489  25.3516  25.6412

          k = 0.0543 0.0580 0.2946 (  4328 PWs)   bands (ev):

   -47.2962 -37.7905 -37.7902 -37.7894 -37.7890 -37.7742 -37.7741 -37.7739
   -37.7729 -37.7649 -37.7645 -23.8491 -23.8365 -23.8320  -3.9019  -3.3434
     5.9534   6.7678   7.3612   7.7505   9.3374   9.5388  10.2985  10.4528
    11.1612  13.1211  13.3687  16.1103  17.3843  18.8055  19.0550  19.3673
    20.5130  20.8321  21.0631  23.3274  24.3475  24.3573  25.3172  25.6607

          k = 0.0518 0.0555 0.2946 (  4328 PWs)   bands (ev):

   -47.2962 -37.7906 -37.7902 -37.7894 -37.7890 -37.7742 -37.7741 -37.7739
   -37.7729 -37.7649 -37.7645 -23.8492 -23.8361 -23.8320  -3.9060  -3.3456
     5.9493   6.7890   7.3601   7.7312   9.3728   9.5609  10.2939  10.4361
    11.1462  13.1444  13.3762  16.0815  17.3644  18.8229  19.0735  19.3493
    20.5234  20.8394  21.0531  23.2928  24.3549  24.3654  25.2836  25.6805

          k = 0.0494 0.0531 0.2946 (  4324 PWs)   bands (ev):

   -47.2963 -37.7904 -37.7902 -37.7894 -37.7890 -37.7742 -37.7737 -37.7736
   -37.7727 -37.7648 -37.7645 -23.8492 -23.8358 -23.8319  -3.9100  -3.3476
     5.9454   6.8103   7.3592   7.7117   9.4079   9.5830  10.2892  10.4194
    11.1314  13.1674  13.3834  16.0534  17.3452  18.8401  19.0907  19.3330
    20.5333  20.8468  21.0438  23.2591  24.3621  24.3733  25.2511  25.7007

          k = 0.0470 0.0507 0.2946 (  4326 PWs)   bands (ev):

   -47.2963 -37.7905 -37.7903 -37.7895 -37.7891 -37.7742 -37.7738 -37.7736
   -37.7728 -37.7649 -37.7645 -23.8493 -23.8354 -23.8318  -3.9137  -3.3496
     5.9416   6.8315   7.3581   7.6922   9.4425   9.6049  10.2839  10.4025
    11.1167  13.1898  13.3901  16.0261  17.3268  18.8567  19.1063  19.3182
    20.5423  20.8538  21.0349  23.2260  24.3686  24.3805  25.2193  25.7209

          k = 0.0445 0.0482 0.2946 (  4326 PWs)   bands (ev):

   -47.2963 -37.7905 -37.7903 -37.7895 -37.7891 -37.7742 -37.7738 -37.7736
   -37.7728 -37.7649 -37.7645 -23.8494 -23.8351 -23.8317  -3.9173  -3.3515
     5.9380   6.8528   7.3572   7.6725   9.4768   9.6266  10.2782  10.3855
    11.1022  13.2117  13.3966  15.9995  17.3091  18.8729  19.1197  19.3058
    20.5507  20.8609  21.0266  23.1940  24.3749  24.3874  25.1885  25.7413

          k = 0.0421 0.0458 0.2946 (  4326 PWs)   bands (ev):

   -47.2963 -37.7905 -37.7903 -37.7895 -37.7891 -37.7742 -37.7738 -37.7736
   -37.7728 -37.7649 -37.7645 -23.8495 -23.8348 -23.8317  -3.9207  -3.3533
     5.9346   6.8741   7.3562   7.6527   9.5106   9.6483  10.2721  10.3683
    11.0878  13.2331  13.4028  15.9739  17.2922  18.8886  19.1305  19.2961
    20.5584  20.8679  21.0189  23.1629  24.3810  24.3939  25.1586  25.7616

          k = 0.0396 0.0433 0.2946 (  4322 PWs)   bands (ev):

   -47.2963 -37.7904 -37.7901 -37.7895 -37.7890 -37.7739 -37.7737 -37.7734
   -37.7727 -37.7647 -37.7645 -23.8495 -23.8345 -23.8316  -3.9240  -3.3550
     5.9314   6.8954   7.3554   7.6329   9.5441   9.6699  10.2656  10.3512
    11.0738  13.2538  13.4087  15.9491  17.2762  18.9039  19.1381  19.2898
    20.5656  20.8750  21.0118  23.1330  24.3871  24.4001  25.1297  25.7819

          k = 0.0372 0.0409 0.2946 (  4320 PWs)   bands (ev):

   -47.2964 -37.7902 -37.7899 -37.7895 -37.7890 -37.7739 -37.7737 -37.7734
   -37.7727 -37.7646 -37.7644 -23.8496 -23.8343 -23.8315  -3.9270  -3.3566
     5.9283   6.9166   7.3545   7.6130   9.5770   9.6912  10.2585  10.3338
    11.0601  13.2738  13.4142  15.9253  17.2610  18.9188  19.1421  19.2872
    20.5719  20.8819  21.0051  23.1042  24.3930  24.4059  25.1017  25.8021

          k = 0.0348 0.0385 0.2946 (  4318 PWs)   bands (ev):

   -47.2964 -37.7901 -37.7897 -37.7894 -37.7890 -37.7739 -37.7736 -37.7733
   -37.7727 -37.7646 -37.7644 -23.8496 -23.8340 -23.8315  -3.9299  -3.3581
     5.9254   6.9378   7.3537   7.5930   9.6094   9.7125  10.2510  10.3164
    11.0468  13.2930  13.4194  15.9026  17.2466  18.9328  19.1426  19.2881
    20.5776  20.8885  20.9991  23.0766  24.3989  24.4113  25.0747  25.8224

          k = 0.0323 0.0360 0.2946 (  4318 PWs)   bands (ev):

   -47.2964 -37.7901 -37.7898 -37.7893 -37.7891 -37.7739 -37.7737 -37.7732
   -37.7727 -37.7645 -37.7644 -23.8497 -23.8338 -23.8314  -3.9326  -3.3595
     5.9227   6.9590   7.3529   7.5730   9.6413   9.7335  10.2428  10.2989
    11.0339  13.3114  13.4242  15.8809  17.2330  18.9462  19.1400  19.2920
    20.5826  20.8948  20.9933  23.0504  24.4047  24.4163  25.0487  25.8415

          k = 0.0299 0.0336 0.2946 (  4316 PWs)   bands (ev):

   -47.2964 -37.7899 -37.7896 -37.7893 -37.7890 -37.7739 -37.7737 -37.7732
   -37.7727 -37.7645 -37.7643 -23.8497 -23.8336 -23.8314  -3.9351  -3.3608
     5.9202   6.9802   7.3522   7.5530   9.6725   9.7544  10.2340  10.2813
    11.0216  13.3289  13.4287  15.8604  17.2203  18.9590  19.1354  19.2982
    20.5870  20.9009  20.9883  23.0256  24.4106  24.4209  25.0238  25.8602

          k = 0.0274 0.0311 0.2946 (  4314 PWs)   bands (ev):

   -47.2964 -37.7898 -37.7896 -37.7892 -37.7890 -37.7736 -37.7734 -37.7732
   -37.7727 -37.7646 -37.7644 -23.8498 -23.8333 -23.8313  -3.9374  -3.3620
     5.9178   7.0012   7.3515   7.5329   9.7032   9.7752  10.2247  10.2638
    11.0098  13.3454  13.4328  15.8410  17.2085  18.9712  19.1294  19.3056
    20.5908  20.9069  20.9838  23.0022  24.4170  24.4252  25.0001  25.8781

          k = 0.0250 0.0287 0.2946 (  4314 PWs)   bands (ev):

   -47.2964 -37.7898 -37.7896 -37.7892 -37.7890 -37.7736 -37.7734 -37.7732
   -37.7727 -37.7646 -37.7644 -23.8498 -23.8332 -23.8313  -3.9395  -3.3631
     5.9157   7.0222   7.3508   7.5129   9.7330   9.7957  10.2146  10.2461
    10.9986  13.3609  13.4367  15.8230  17.1975  18.9823  19.1228  19.3137
    20.5941  20.9123  20.9798  22.9803  24.4230  24.4291  24.9775  25.8950

          k = 0.0226 0.0263 0.2946 (  4312 PWs)   bands (ev):

   -47.2965 -37.7895 -37.7895 -37.7892 -37.7890 -37.7736 -37.7734 -37.7732
   -37.7727 -37.7646 -37.7644 -23.8499 -23.8330 -23.8312  -3.9415  -3.3641
     5.9137   7.0430   7.3502   7.4929   9.7622   9.8160  10.2039  10.2284
    10.9881  13.3753  13.4402  15.8062  17.1875  18.9931  19.1161  19.3219
    20.5969  20.9174  20.9762  22.9602  24.4291  24.4327  24.9562  25.9111

          k = 0.0201 0.0238 0.2946 (  4306 PWs)   bands (ev):

   -47.2965 -37.7894 -37.7892 -37.7891 -37.7888 -37.7731 -37.7730 -37.7730
   -37.7726 -37.7646 -37.7644 -23.8499 -23.8328 -23.8312  -3.9433  -3.3651
     5.9119   7.0636   7.3497   7.4731   9.7905   9.8360  10.1926  10.2108
    10.9784  13.3886  13.4434  15.7909  17.1785  19.0026  19.1096  19.3300
    20.5994  20.9223  20.9734  22.9417  24.4356  24.4360  24.9363  25.9269

          k = 0.0177 0.0214 0.2946 (  4302 PWs)   bands (ev):

   -47.2965 -37.7894 -37.7892 -37.7888 -37.7887 -37.7730 -37.7730 -37.7726
   -37.7726 -37.7644 -37.7643 -23.8499 -23.8327 -23.8312  -3.9449  -3.3659
     5.9103   7.0840   7.3492   7.4534   9.8178   9.8557  10.1806  10.1933
    10.9696  13.4006  13.4463  15.7770  17.1704  19.0112  19.1033  19.3376
    20.6015  20.9268  20.9710  22.9249  24.4388  24.4414  24.9179  25.9416

          k = 0.0152 0.0189 0.2946 (  4302 PWs)   bands (ev):

   -47.2965 -37.7894 -37.7892 -37.7888 -37.7887 -37.7730 -37.7730 -37.7726
   -37.7726 -37.7644 -37.7643 -23.8500 -23.8326 -23.8311  -3.9462  -3.3666
     5.9089   7.1040   7.3488   7.4340   9.8441   9.8749  10.1681  10.1758
    10.9616  13.4114  13.4488  15.7646  17.1632  19.0189  19.0974  19.3445
    20.6031  20.9306  20.9687  22.9100  24.4413  24.4470  24.9011  25.9541

          k = 0.0128 0.0165 0.2946 (  4298 PWs)   bands (ev):

   -47.2965 -37.7896 -37.7891 -37.7887 -37.7887 -37.7729 -37.7726 -37.7725
   -37.7722 -37.7644 -37.7642 -23.8500 -23.8325 -23.8311  -3.9475  -3.3672
     5.9076   7.1235   7.3484   7.4150   9.8692   9.8937  10.1550  10.1588
    10.9546  13.4209  13.4509  15.7537  17.1570  19.0255  19.0924  19.3507
    20.6045  20.9345  20.9669  22.8969  24.4435  24.4524  24.8863  25.9657

          k = 0.0103 0.0141 0.2946 (  4292 PWs)   bands (ev):

   -47.2965 -37.7894 -37.7891 -37.7885 -37.7885 -37.7725 -37.7725 -37.7723
   -37.7721 -37.7641 -37.7641 -23.8500 -23.8324 -23.8311  -3.9485  -3.3678
     5.9066   7.1424   7.3481   7.3966   9.8929   9.9117  10.1417  10.1422
    10.9486  13.4290  13.4528  15.7446  17.1517  19.0314  19.0879  19.3562
    20.6056  20.9374  20.9655  22.8858  24.4458  24.4581  24.8731  25.9763

          k = 0.0079 0.0116 0.2946 (  4292 PWs)   bands (ev):

   -47.2965 -37.7894 -37.7891 -37.7885 -37.7885 -37.7725 -37.7725 -37.7723
   -37.7721 -37.7641 -37.7641 -23.8500 -23.8323 -23.8311  -3.9493  -3.3682
     5.9058   7.1601   7.3479   7.3792   9.9146   9.9287  10.1263  10.1284
    10.9436  13.4356  13.4543  15.7369  17.1473  19.0361  19.0842  19.3607
    20.6064  20.9399  20.9642  22.8766  24.4473  24.4623  24.8621  25.9842

          k = 0.0055 0.0092 0.2946 (  4290 PWs)   bands (ev):

   -47.2965 -37.7891 -37.7890 -37.7887 -37.7885 -37.7725 -37.7723 -37.7723
   -37.7721 -37.7641 -37.7640 -23.8500 -23.8322 -23.8311  -3.9500  -3.3686
     5.9051   7.1762   7.3477   7.3634   9.9340   9.9441  10.1117  10.1157
    10.9397  13.4408  13.4555  15.7310  17.1439  19.0401  19.0814  19.3642
    20.6070  20.9418  20.9633  22.8695  24.4489  24.4662  24.8534  25.9902

          k = 0.0030 0.0067 0.2946 (  4290 PWs)   bands (ev):

   -47.2965 -37.7892 -37.7890 -37.7887 -37.7885 -37.7725 -37.7723 -37.7723
   -37.7721 -37.7641 -37.7640 -23.8501 -23.8322 -23.8311  -3.9504  -3.3688
     5.9046   7.1896   7.3475   7.3502   9.9499   9.9570  10.0994  10.1046
    10.9368  13.4446  13.4563  15.7267  17.1415  19.0427  19.0793  19.3668
    20.6073  20.9432  20.9626  22.8643  24.4497  24.4688  24.8470  25.9947

          k = 0.0006 0.0043 0.2946 (  4292 PWs)   bands (ev):

   -47.2965 -37.7892 -37.7890 -37.7887 -37.7885 -37.7726 -37.7726 -37.7723
   -37.7721 -37.7642 -37.7641 -23.8501 -23.8322 -23.8310  -3.9507  -3.3690
     5.9043   7.1988   7.3410   7.3474   9.9607   9.9660  10.0908  10.0967
    10.9351  13.4468  13.4568  15.7241  17.1400  19.0443  19.0780  19.3683
    20.6075  20.9436  20.9620  22.8612  24.4501  24.4704  24.8430  25.9971

          k =-0.0019 0.0019 0.2946 (  4290 PWs)   bands (ev):

   -47.2965 -37.7891 -37.7890 -37.7887 -37.7885 -37.7725 -37.7724 -37.7722
   -37.7721 -37.7642 -37.7641 -23.8501 -23.8321 -23.8310  -3.9508  -3.3690
     5.9042   7.2022   7.3377   7.3474   9.9646   9.9693  10.0877  10.0937
    10.9345  13.4476  13.4570  15.7232  17.1395  19.0449  19.0775  19.3688
    20.6076  20.9443  20.9620  22.8602  24.4504  24.4713  24.8417  25.9982

     Writing output data file TiSe2.save/

     init_run     :      7.06s CPU      7.46s WALL (       1 calls)
     electrons    :     75.74s CPU     84.58s WALL (       1 calls)

     Called by init_run:
     wfcinit      :      0.00s CPU      0.00s WALL (       1 calls)
     wfcinit:atom :      0.03s CPU      0.03s WALL (      16 calls)
     wfcinit:wfcr :      2.67s CPU      2.67s WALL (      16 calls)
     potinit      :      0.52s CPU      0.91s WALL (       1 calls)
     hinit0       :      6.48s CPU      6.48s WALL (       1 calls)

     Called by electrons:
     c_bands      :     75.70s CPU     84.41s WALL (       1 calls)
     v_of_rho     :      0.09s CPU      0.09s WALL (       1 calls)
     v_h          :      0.02s CPU      0.02s WALL (       1 calls)
     v_xc         :      0.07s CPU      0.07s WALL (       1 calls)

     Called by c_bands:
     init_us_2    :      0.04s CPU      0.04s WALL (      16 calls)
     cegterg      :     64.98s CPU     64.98s WALL (      32 calls)

     Called by sum_band:

     Called by *egterg:
     h_psi        :     31.12s CPU     31.13s WALL (     451 calls)
     g_psi        :      0.27s CPU      0.28s WALL (     403 calls)
     cdiaghg      :      3.04s CPU      3.04s WALL (     419 calls)
     cegterg:over :     13.52s CPU     13.51s WALL (     403 calls)
     cegterg:upda :     10.85s CPU     10.85s WALL (     403 calls)
     cegterg:last :      7.18s CPU      7.18s WALL (      80 calls)

     Called by h_psi:
     h_psi:pot    :     31.00s CPU     31.00s WALL (     451 calls)
     h_psi:calbec :      4.48s CPU      4.48s WALL (     451 calls)
     vloc_psi     :     22.37s CPU     22.37s WALL (     451 calls)
     add_vuspsi   :      4.15s CPU      4.15s WALL (     451 calls)

     General routines
     calbec       :      4.47s CPU      4.48s WALL (     451 calls)
     fft          :      0.08s CPU      0.08s WALL (       5 calls)
     ffts         :      0.00s CPU      0.00s WALL (       1 calls)
     fftw         :     20.29s CPU     20.31s WALL (   20000 calls)
     interpolate  :      0.02s CPU      0.02s WALL (       1 calls)
     davcio       :      0.00s CPU      0.17s WALL (      32 calls)

     Parallel routines

     PWSCF        :   1m32.88s CPU   2m11.96s WALL


   This run was terminated on:  18:42:39   5Nov2019            

=------------------------------------------------------------------------------=
   JOB DONE.
=------------------------------------------------------------------------------=
