
     Program PWSCF v.6.4 starts on  1Jul2019 at 14:44:47 

     This program is part of the open-source Quantum ESPRESSO suite
     for quantum simulation of materials; please cite
         "P. Giannozzi et al., J. Phys.:Condens. Matter 21 395502 (2009);
         "P. Giannozzi et al., J. Phys.:Condens. Matter 29 465901 (2017);
          URL http://www.quantum-espresso.org", 
     in publications or presentations arising from this work. More details at
     http://www.quantum-espresso.org/quote

     Parallel version (MPI), running on    32 processors

     MPI processes distributed on     4 nodes
     K-points division:     npool     =      32
     Waiting for input...
     Reading input from standard input

     Current dimensions of program PWSCF are:
     Max number of different atomic species (ntypx) = 10
     Max number of k-points (npk) =  40000
     Max angular momentum in pseudopotentials (lmaxx) =  3
               file Ti.pz-spn-rrkjus_psl.1.0.0.UPF: wavefunction(s)  3S 3D renormalized

     Subspace diagonalization in iterative solution of the eigenvalue problem:
     a serial algorithm will be used


     G-vector sticks info
     --------------------
     sticks:   dense  smooth     PW     G-vecs:    dense   smooth      PW
     Sum        2479     859    265               168117    34781    6045



     bravais-lattice index     =            0
     lattice parameter (alat)  =       6.6896  a.u.
     unit-cell volume          =     440.2643 (a.u.)^3
     number of atoms/cell      =            3
     number of atomic types    =            2
     number of electrons       =        24.00
     number of Kohn-Sham states=           16
     kinetic-energy cutoff     =      70.0000  Ry
     charge density cutoff     =     800.0000  Ry
     convergence threshold     =      1.0E-10
     mixing beta               =       0.7000
     number of iterations used =            8  plain     mixing
     Exchange-correlation      = LDA ( 1  1  0  0 0 0)
     nstep                     =           50


     celldm(1)=   6.689630  celldm(2)=   0.000000  celldm(3)=   0.000000
     celldm(4)=   0.000000  celldm(5)=   0.000000  celldm(6)=   0.000000

     crystal axes: (cart. coord. in units of alat)
               a(1) = (   0.966063  -0.258191   0.007696 )  
               a(2) = (  -0.258191   0.966063  -0.007696 )  
               a(3) = (  -0.013060   0.013060   1.696830 )  

     reciprocal axes: (cart. coord. in units 2 pi/alat)
               b(1) = (  1.114714  0.297969  0.006286 )  
               b(2) = (  0.297969  1.114714 -0.006286 )  
               b(3) = ( -0.003704  0.003704  0.589277 )  


     PseudoPot. # 1 for Ti read from file:
     ./pseudo/Ti.pz-spn-rrkjus_psl.1.0.0.UPF
     MD5 check sum: 2354b1dd637eae4f0b5af1ae1c6b5e32
     Pseudo is Ultrasoft + core correction, Zval = 12.0
     Generated using "atomic" code by A. Dal Corso v.6.2.2
     Using radial grid of 1177 points,  6 beta functions with: 
                l(1) =   0
                l(2) =   0
                l(3) =   1
                l(4) =   1
                l(5) =   2
                l(6) =   2
     Q(r) pseudized with 0 coefficients 


     PseudoPot. # 2 for Se read from file:
     ./pseudo/Se.pz-n-rrkjus_psl.0.2.UPF
     MD5 check sum: 25603cecb1b2b0d484ba6e75ea72c72e
     Pseudo is Ultrasoft + core correction, Zval =  6.0
     Generated using "atomic" code by A. Dal Corso v.5.0.2 svn rev. 9415
     Using radial grid of 1211 points,  4 beta functions with: 
                l(1) =   0
                l(2) =   0
                l(3) =   1
                l(4) =   1
     Q(r) pseudized with 0 coefficients 


     atomic species   valence    mass     pseudopotential
        Ti            12.00    47.86700     Ti( 1.00)
        Se             6.00    78.97100     Se( 1.00)

      4 Sym. Ops., with inversion, found



   Cartesian axes

     site n.     atom                  positions (alat units)
         1           Ti  tau(   1) = (   0.0000000   0.0000000   0.0000000  )
         2           Se  tau(   2) = (   0.1465634   0.5613093   0.4301773  )
         3           Se  tau(   3) = (   0.5613093   0.1465634  -0.4301773  )

     number of k points=  1098  Marzari-Vanderbilt smearing, width (Ry)=  0.0100

     Number of k-points >= 100: set verbosity='high' to print them.

     Dense  grid:   168117 G-vectors     FFT dimensions: (  64,  64, 108)

     Smooth grid:    34781 G-vectors     FFT dimensions: (  36,  36,  64)

     Estimated max dynamical RAM per process >     167.30 MB

     Estimated total dynamical RAM >       5.23 GB

     Initial potential from superposition of free atoms

     starting charge   23.99862, renormalised to   24.00000
     Starting wfcs are   18 randomized atomic wfcs

     total cpu time spent up to now is       12.4 secs

     Self-consistent Calculation

     iteration #  1     ecut=    70.00 Ry     beta= 0.70
     Davidson diagonalization with overlap
     ethr =  1.00E-02,  avg # of iterations =  2.0

     Threshold (ethr) on eigenvalues was too large:
     Diagonalizing with lowered threshold

     Davidson diagonalization with overlap
     ethr =  5.47E-04,  avg # of iterations =  1.0

     total cpu time spent up to now is       26.2 secs

     total energy              =    -175.39729766 Ry
     Harris-Foulkes estimate   =    -175.49136446 Ry
     estimated scf accuracy    <       0.13175088 Ry

     iteration #  2     ecut=    70.00 Ry     beta= 0.70
     Davidson diagonalization with overlap
     ethr =  5.49E-04,  avg # of iterations =  3.8

     total cpu time spent up to now is       36.1 secs

     total energy              =    -175.18711113 Ry
     Harris-Foulkes estimate   =    -175.60496135 Ry
     estimated scf accuracy    <       1.98294770 Ry

     iteration #  3     ecut=    70.00 Ry     beta= 0.70
     Davidson diagonalization with overlap
     ethr =  5.49E-04,  avg # of iterations =  3.7

     total cpu time spent up to now is       45.3 secs

     total energy              =    -175.43935182 Ry
     Harris-Foulkes estimate   =    -175.48849261 Ry
     estimated scf accuracy    <       0.23872224 Ry

     iteration #  4     ecut=    70.00 Ry     beta= 0.70
     Davidson diagonalization with overlap
     ethr =  5.49E-04,  avg # of iterations =  2.0

     total cpu time spent up to now is       52.4 secs

     total energy              =    -175.45567682 Ry
     Harris-Foulkes estimate   =    -175.45873289 Ry
     estimated scf accuracy    <       0.01504983 Ry

     iteration #  5     ecut=    70.00 Ry     beta= 0.70
     Davidson diagonalization with overlap
     ethr =  6.27E-05,  avg # of iterations =  2.9

     total cpu time spent up to now is       59.1 secs

     total energy              =    -175.45718341 Ry
     Harris-Foulkes estimate   =    -175.45725548 Ry
     estimated scf accuracy    <       0.00034066 Ry

     iteration #  6     ecut=    70.00 Ry     beta= 0.70
     Davidson diagonalization with overlap
     ethr =  1.42E-06,  avg # of iterations =  3.8

     total cpu time spent up to now is       68.7 secs

     total energy              =    -175.45730034 Ry
     Harris-Foulkes estimate   =    -175.45730696 Ry
     estimated scf accuracy    <       0.00004497 Ry

     iteration #  7     ecut=    70.00 Ry     beta= 0.70
     Davidson diagonalization with overlap
     ethr =  1.87E-07,  avg # of iterations =  1.2

     total cpu time spent up to now is       75.0 secs

     total energy              =    -175.45730113 Ry
     Harris-Foulkes estimate   =    -175.45730271 Ry
     estimated scf accuracy    <       0.00000742 Ry

     iteration #  8     ecut=    70.00 Ry     beta= 0.70
     Davidson diagonalization with overlap
     ethr =  3.09E-08,  avg # of iterations =  2.8

     total cpu time spent up to now is       82.1 secs

     total energy              =    -175.45730231 Ry
     Harris-Foulkes estimate   =    -175.45730234 Ry
     estimated scf accuracy    <       0.00000019 Ry

     iteration #  9     ecut=    70.00 Ry     beta= 0.70
     Davidson diagonalization with overlap
     ethr =  8.03E-10,  avg # of iterations =  1.9

     total cpu time spent up to now is       89.2 secs

     total energy              =    -175.45730233 Ry
     Harris-Foulkes estimate   =    -175.45730233 Ry
     estimated scf accuracy    <       0.00000002 Ry

     iteration # 10     ecut=    70.00 Ry     beta= 0.70
     Davidson diagonalization with overlap
     ethr =  8.16E-11,  avg # of iterations =  3.3

     total cpu time spent up to now is       96.6 secs

     total energy              =    -175.45730233 Ry
     Harris-Foulkes estimate   =    -175.45730233 Ry
     estimated scf accuracy    <          7.5E-10 Ry

     iteration # 11     ecut=    70.00 Ry     beta= 0.70
     Davidson diagonalization with overlap
     ethr =  3.14E-12,  avg # of iterations =  2.5

     total cpu time spent up to now is      104.0 secs

     End of self-consistent calculation

     Number of k-points >= 100: set verbosity='high' to print the bands.

     the Fermi energy is     7.5495 ev

!    total energy              =    -175.45730233 Ry
     Harris-Foulkes estimate   =    -175.45730233 Ry
     estimated scf accuracy    <          4.4E-11 Ry

     The total energy is the sum of the following terms:

     one-electron contribution =     -78.95088598 Ry
     hartree contribution      =      47.29950088 Ry
     xc contribution           =     -45.40837609 Ry
     ewald contribution        =     -98.39738977 Ry
     smearing contrib. (-TS)   =      -0.00015136 Ry

     convergence has been achieved in  11 iterations

     Forces acting on atoms (cartesian axes, Ry/au):

     atom    1 type  1   force =     0.00000000    0.00000000    0.00000000
     atom    2 type  2   force =     0.00055123   -0.00055123   -0.00965423
     atom    3 type  2   force =    -0.00055123    0.00055123    0.00965423

     Total force =     0.013698     Total SCF correction =     0.000006


     Computing stress (Cartesian axis) and pressure

          total   stress  (Ry/bohr**3)                   (kbar)     P=  -46.20
  -0.00034253  -0.00000648   0.00000680        -50.39     -0.95      1.00
  -0.00000648  -0.00034253  -0.00000680         -0.95    -50.39     -1.00
   0.00000680  -0.00000680  -0.00025714          1.00     -1.00    -37.83


     BFGS Geometry Optimization

     number of scf cycles    =   1
     number of bfgs steps    =   0

     energy   new            =    -175.4573023302 Ry

     new trust radius        =       0.0096856480 bohr
     new conv_thr            =            1.0E-10 Ry


ATOMIC_POSITIONS (crystal)
Ti       0.000000000   0.000000000   0.000000000
Se       0.333391561   0.666608438   0.254178967
Se       0.666608438   0.333391561  -0.254178967



     Writing output data file TiSe2.save/
     NEW-OLD atomic charge density approx. for the potential

     total cpu time spent up to now is      129.3 secs

     Self-consistent Calculation

     iteration #  1     ecut=    70.00 Ry     beta= 0.70
     Davidson diagonalization with overlap
     ethr =  1.00E-06,  avg # of iterations =  3.0

     Threshold (ethr) on eigenvalues was too large:
     Diagonalizing with lowered threshold

     Davidson diagonalization with overlap
     ethr =  5.75E-08,  avg # of iterations =  1.3

     total cpu time spent up to now is      145.4 secs

     total energy              =    -175.45746025 Ry
     Harris-Foulkes estimate   =    -175.45747185 Ry
     estimated scf accuracy    <       0.00001427 Ry

     iteration #  2     ecut=    70.00 Ry     beta= 0.70
     Davidson diagonalization with overlap
     ethr =  5.95E-08,  avg # of iterations =  4.0

     total cpu time spent up to now is      154.2 secs

     total energy              =    -175.45743461 Ry
     Harris-Foulkes estimate   =    -175.45750797 Ry
     estimated scf accuracy    <       0.00037127 Ry

     iteration #  3     ecut=    70.00 Ry     beta= 0.70
     Davidson diagonalization with overlap
     ethr =  5.95E-08,  avg # of iterations =  3.9

     total cpu time spent up to now is      162.9 secs

     total energy              =    -175.45746991 Ry
     Harris-Foulkes estimate   =    -175.45747010 Ry
     estimated scf accuracy    <       0.00000052 Ry

     iteration #  4     ecut=    70.00 Ry     beta= 0.70
     Davidson diagonalization with overlap
     ethr =  2.16E-09,  avg # of iterations =  2.1

     total cpu time spent up to now is      170.2 secs

     total energy              =    -175.45747000 Ry
     Harris-Foulkes estimate   =    -175.45747003 Ry
     estimated scf accuracy    <       0.00000005 Ry

     iteration #  5     ecut=    70.00 Ry     beta= 0.70
     Davidson diagonalization with overlap
     ethr =  2.22E-10,  avg # of iterations =  2.2

     total cpu time spent up to now is      177.5 secs

     total energy              =    -175.45747001 Ry
     Harris-Foulkes estimate   =    -175.45747001 Ry
     estimated scf accuracy    <          9.2E-10 Ry

     iteration #  6     ecut=    70.00 Ry     beta= 0.70
     Davidson diagonalization with overlap
     ethr =  3.85E-12,  avg # of iterations =  3.6

     total cpu time spent up to now is      186.1 secs

     total energy              =    -175.45747001 Ry
     Harris-Foulkes estimate   =    -175.45747001 Ry
     estimated scf accuracy    <          2.2E-10 Ry

     iteration #  7     ecut=    70.00 Ry     beta= 0.70
     Davidson diagonalization with overlap
     ethr =  9.10E-13,  avg # of iterations =  1.5

     total cpu time spent up to now is      192.5 secs

     End of self-consistent calculation

     Number of k-points >= 100: set verbosity='high' to print the bands.

     the Fermi energy is     7.5494 ev

!    total energy              =    -175.45747001 Ry
     Harris-Foulkes estimate   =    -175.45747001 Ry
     estimated scf accuracy    <          1.4E-12 Ry

     The total energy is the sum of the following terms:

     one-electron contribution =     -79.27385420 Ry
     hartree contribution      =      47.45978359 Ry
     xc contribution           =     -45.41333212 Ry
     ewald contribution        =     -98.22991526 Ry
     smearing contrib. (-TS)   =      -0.00015202 Ry

     convergence has been achieved in   7 iterations

     Forces acting on atoms (cartesian axes, Ry/au):

     atom    1 type  1   force =    -0.00000000   -0.00000000    0.00000000
     atom    2 type  2   force =     0.00049626   -0.00049626   -0.00759902
     atom    3 type  2   force =    -0.00049626    0.00049626    0.00759902

     Total force =     0.010792     Total SCF correction =     0.000001


     Computing stress (Cartesian axis) and pressure

          total   stress  (Ry/bohr**3)                   (kbar)     P=  -43.73
  -0.00032985  -0.00000633   0.00000616        -48.52     -0.93      0.91
  -0.00000633  -0.00032985  -0.00000616         -0.93    -48.52     -0.91
   0.00000616  -0.00000616  -0.00023215          0.91     -0.91    -34.15


     number of scf cycles    =   2
     number of bfgs steps    =   1

     energy   old            =    -175.4573023302 Ry
     energy   new            =    -175.4574700144 Ry

     CASE: energy  _new < energy  _old

     new trust radius        =       0.0106542128 bohr
     new conv_thr            =            1.0E-10 Ry


ATOMIC_POSITIONS (crystal)
Ti      -0.000000000  -0.000000000   0.000000000
Se       0.333466176   0.666533823   0.253243666
Se       0.666533823   0.333466176  -0.253243666



     Writing output data file TiSe2.save/
     NEW-OLD atomic charge density approx. for the potential

     total cpu time spent up to now is      217.8 secs

     Self-consistent Calculation

     iteration #  1     ecut=    70.00 Ry     beta= 0.70
     Davidson diagonalization with overlap
     ethr =  1.00E-06,  avg # of iterations =  3.0

     Threshold (ethr) on eigenvalues was too large:
     Diagonalizing with lowered threshold

     Davidson diagonalization with overlap
     ethr =  7.00E-08,  avg # of iterations =  1.2

     total cpu time spent up to now is      233.9 secs

     total energy              =    -175.45759744 Ry
     Harris-Foulkes estimate   =    -175.45761145 Ry
     estimated scf accuracy    <       0.00001722 Ry

     iteration #  2     ecut=    70.00 Ry     beta= 0.70
     Davidson diagonalization with overlap
     ethr =  7.18E-08,  avg # of iterations =  4.0

     total cpu time spent up to now is      242.7 secs

     total energy              =    -175.45756675 Ry
     Harris-Foulkes estimate   =    -175.45765476 Ry
     estimated scf accuracy    <       0.00044323 Ry

     iteration #  3     ecut=    70.00 Ry     beta= 0.70
     Davidson diagonalization with overlap
     ethr =  7.18E-08,  avg # of iterations =  3.9

     total cpu time spent up to now is      251.4 secs

     total energy              =    -175.45760903 Ry
     Harris-Foulkes estimate   =    -175.45760927 Ry
     estimated scf accuracy    <       0.00000062 Ry

     iteration #  4     ecut=    70.00 Ry     beta= 0.70
     Davidson diagonalization with overlap
     ethr =  2.60E-09,  avg # of iterations =  2.1

     total cpu time spent up to now is      258.7 secs

     total energy              =    -175.45760915 Ry
     Harris-Foulkes estimate   =    -175.45760918 Ry
     estimated scf accuracy    <       0.00000006 Ry

     iteration #  5     ecut=    70.00 Ry     beta= 0.70
     Davidson diagonalization with overlap
     ethr =  2.66E-10,  avg # of iterations =  2.2

     total cpu time spent up to now is      265.9 secs

     total energy              =    -175.45760916 Ry
     Harris-Foulkes estimate   =    -175.45760916 Ry
     estimated scf accuracy    <          1.1E-09 Ry

     iteration #  6     ecut=    70.00 Ry     beta= 0.70
     Davidson diagonalization with overlap
     ethr =  4.54E-12,  avg # of iterations =  3.7

     total cpu time spent up to now is      274.6 secs

     total energy              =    -175.45760916 Ry
     Harris-Foulkes estimate   =    -175.45760916 Ry
     estimated scf accuracy    <          2.6E-10 Ry

     iteration #  7     ecut=    70.00 Ry     beta= 0.70
     Davidson diagonalization with overlap
     ethr =  1.08E-12,  avg # of iterations =  1.5

     total cpu time spent up to now is      280.9 secs

     End of self-consistent calculation

     Number of k-points >= 100: set verbosity='high' to print the bands.

     the Fermi energy is     7.5494 ev

!    total energy              =    -175.45760916 Ry
     Harris-Foulkes estimate   =    -175.45760916 Ry
     estimated scf accuracy    <          2.0E-12 Ry

     The total energy is the sum of the following terms:

     one-electron contribution =     -79.63095107 Ry
     hartree contribution      =      47.63701813 Ry
     xc contribution           =     -45.41882466 Ry
     ewald contribution        =     -98.04469947 Ry
     smearing contrib. (-TS)   =      -0.00015210 Ry

     convergence has been achieved in   7 iterations

     Forces acting on atoms (cartesian axes, Ry/au):

     atom    1 type  1   force =     0.00000000    0.00000000    0.00000000
     atom    2 type  2   force =     0.00042409   -0.00042409   -0.00532741
     atom    3 type  2   force =    -0.00042409    0.00042409    0.00532741

     Total force =     0.007582     Total SCF correction =     0.000001


     Computing stress (Cartesian axis) and pressure

          total   stress  (Ry/bohr**3)                   (kbar)     P=  -41.00
  -0.00031571  -0.00000610   0.00000532        -46.44     -0.90      0.78
  -0.00000610  -0.00031571  -0.00000532         -0.90    -46.44     -0.78
   0.00000532  -0.00000532  -0.00020470          0.78     -0.78    -30.11


     number of scf cycles    =   3
     number of bfgs steps    =   2

     energy   old            =    -175.4574700144 Ry
     energy   new            =    -175.4576091635 Ry

     CASE: energy  _new < energy  _old

     new trust radius        =       0.0159813191 bohr
     new conv_thr            =            1.0E-10 Ry


ATOMIC_POSITIONS (crystal)
Ti      -0.000000000  -0.000000000   0.000000000
Se       0.333597776   0.666402223   0.251842535
Se       0.666402223   0.333597776  -0.251842535



     Writing output data file TiSe2.save/
     NEW-OLD atomic charge density approx. for the potential

     total cpu time spent up to now is      306.2 secs

     Self-consistent Calculation

     iteration #  1     ecut=    70.00 Ry     beta= 0.70
     Davidson diagonalization with overlap
     ethr =  1.00E-06,  avg # of iterations =  3.1

     total cpu time spent up to now is      316.7 secs

     total energy              =    -175.45769852 Ry
     Harris-Foulkes estimate   =    -175.45773012 Ry
     estimated scf accuracy    <       0.00003893 Ry

     iteration #  2     ecut=    70.00 Ry     beta= 0.70
     Davidson diagonalization with overlap
     ethr =  1.62E-07,  avg # of iterations =  4.0

     total cpu time spent up to now is      325.5 secs

     total energy              =    -175.45763095 Ry
     Harris-Foulkes estimate   =    -175.45782667 Ry
     estimated scf accuracy    <       0.00097651 Ry

     iteration #  3     ecut=    70.00 Ry     beta= 0.70
     Davidson diagonalization with overlap
     ethr =  1.62E-07,  avg # of iterations =  3.9

     total cpu time spent up to now is      334.1 secs

     total energy              =    -175.45772507 Ry
     Harris-Foulkes estimate   =    -175.45772560 Ry
     estimated scf accuracy    <       0.00000158 Ry

     iteration #  4     ecut=    70.00 Ry     beta= 0.70
     Davidson diagonalization with overlap
     ethr =  6.57E-09,  avg # of iterations =  2.1

     total cpu time spent up to now is      341.4 secs

     total energy              =    -175.45772536 Ry
     Harris-Foulkes estimate   =    -175.45772542 Ry
     estimated scf accuracy    <       0.00000014 Ry

     iteration #  5     ecut=    70.00 Ry     beta= 0.70
     Davidson diagonalization with overlap
     ethr =  5.93E-10,  avg # of iterations =  2.3

     total cpu time spent up to now is      348.7 secs

     total energy              =    -175.45772539 Ry
     Harris-Foulkes estimate   =    -175.45772539 Ry
     estimated scf accuracy    <          2.7E-09 Ry

     iteration #  6     ecut=    70.00 Ry     beta= 0.70
     Davidson diagonalization with overlap
     ethr =  1.12E-11,  avg # of iterations =  3.5

     total cpu time spent up to now is      357.3 secs

     total energy              =    -175.45772539 Ry
     Harris-Foulkes estimate   =    -175.45772539 Ry
     estimated scf accuracy    <          6.2E-10 Ry

     iteration #  7     ecut=    70.00 Ry     beta= 0.70
     Davidson diagonalization with overlap
     ethr =  2.59E-12,  avg # of iterations =  1.6

     total cpu time spent up to now is      363.7 secs

     End of self-consistent calculation

     Number of k-points >= 100: set verbosity='high' to print the bands.

     the Fermi energy is     7.5495 ev

!    total energy              =    -175.45772539 Ry
     Harris-Foulkes estimate   =    -175.45772539 Ry
     estimated scf accuracy    <          5.6E-12 Ry

     The total energy is the sum of the following terms:

     one-electron contribution =     -80.17020076 Ry
     hartree contribution      =      47.90474808 Ry
     xc contribution           =     -45.42714680 Ry
     ewald contribution        =     -97.76497495 Ry
     smearing contrib. (-TS)   =      -0.00015096 Ry

     convergence has been achieved in   7 iterations

     Forces acting on atoms (cartesian axes, Ry/au):

     atom    1 type  1   force =     0.00000000    0.00000000    0.00000000
     atom    2 type  2   force =     0.00029302   -0.00029302   -0.00189867
     atom    3 type  2   force =    -0.00029302    0.00029302    0.00189867

     Total force =     0.002748     Total SCF correction =     0.000002


     Computing stress (Cartesian axis) and pressure

          total   stress  (Ry/bohr**3)                   (kbar)     P=  -36.84
  -0.00029397  -0.00000560   0.00000377        -43.24     -0.82      0.55
  -0.00000560  -0.00029397  -0.00000377         -0.82    -43.24     -0.55
   0.00000377  -0.00000377  -0.00016344          0.55     -0.55    -24.04


     number of scf cycles    =   4
     number of bfgs steps    =   3

     energy   old            =    -175.4576091635 Ry
     energy   new            =    -175.4577253927 Ry

     CASE: energy  _new < energy  _old

     new trust radius        =       0.0090257137 bohr
     new conv_thr            =            1.0E-10 Ry


ATOMIC_POSITIONS (crystal)
Ti      -0.000000000  -0.000000000   0.000000000
Se       0.333698817   0.666301182   0.251054364
Se       0.666301182   0.333698817  -0.251054364



     Writing output data file TiSe2.save/
     NEW-OLD atomic charge density approx. for the potential

     total cpu time spent up to now is      389.0 secs

     Self-consistent Calculation

     iteration #  1     ecut=    70.00 Ry     beta= 0.70
     Davidson diagonalization with overlap
     ethr =  1.00E-06,  avg # of iterations =  3.0

     Threshold (ethr) on eigenvalues was too large:
     Diagonalizing with lowered threshold

     Davidson diagonalization with overlap
     ethr =  5.08E-08,  avg # of iterations =  1.4

     total cpu time spent up to now is      405.0 secs

     total energy              =    -175.45773451 Ry
     Harris-Foulkes estimate   =    -175.45774489 Ry
     estimated scf accuracy    <       0.00001268 Ry

     iteration #  2     ecut=    70.00 Ry     beta= 0.70
     Davidson diagonalization with overlap
     ethr =  5.28E-08,  avg # of iterations =  4.0

     total cpu time spent up to now is      413.8 secs

     total energy              =    -175.45771237 Ry
     Harris-Foulkes estimate   =    -175.45777627 Ry
     estimated scf accuracy    <       0.00031948 Ry

     iteration #  3     ecut=    70.00 Ry     beta= 0.70
     Davidson diagonalization with overlap
     ethr =  5.28E-08,  avg # of iterations =  3.9

     total cpu time spent up to now is      422.5 secs

     total energy              =    -175.45774315 Ry
     Harris-Foulkes estimate   =    -175.45774331 Ry
     estimated scf accuracy    <       0.00000046 Ry

     iteration #  4     ecut=    70.00 Ry     beta= 0.70
     Davidson diagonalization with overlap
     ethr =  1.90E-09,  avg # of iterations =  2.1

     total cpu time spent up to now is      429.7 secs

     total energy              =    -175.45774323 Ry
     Harris-Foulkes estimate   =    -175.45774325 Ry
     estimated scf accuracy    <       0.00000005 Ry

     iteration #  5     ecut=    70.00 Ry     beta= 0.70
     Davidson diagonalization with overlap
     ethr =  1.94E-10,  avg # of iterations =  2.2

     total cpu time spent up to now is      437.0 secs

     total energy              =    -175.45774324 Ry
     Harris-Foulkes estimate   =    -175.45774324 Ry
     estimated scf accuracy    <          8.9E-10 Ry

     iteration #  6     ecut=    70.00 Ry     beta= 0.70
     Davidson diagonalization with overlap
     ethr =  3.70E-12,  avg # of iterations =  3.7

     total cpu time spent up to now is      445.6 secs

     total energy              =    -175.45774324 Ry
     Harris-Foulkes estimate   =    -175.45774324 Ry
     estimated scf accuracy    <          2.2E-10 Ry

     iteration #  7     ecut=    70.00 Ry     beta= 0.70
     Davidson diagonalization with overlap
     ethr =  9.11E-13,  avg # of iterations =  1.5

     total cpu time spent up to now is      451.9 secs

     End of self-consistent calculation

     Number of k-points >= 100: set verbosity='high' to print the bands.

     the Fermi energy is     7.5497 ev

!    total energy              =    -175.45774324 Ry
     Harris-Foulkes estimate   =    -175.45774324 Ry
     estimated scf accuracy    <          2.7E-12 Ry

     The total energy is the sum of the following terms:

     one-electron contribution =     -80.47580428 Ry
     hartree contribution      =      48.05652907 Ry
     xc contribution           =     -45.43187932 Ry
     ewald contribution        =     -97.60643908 Ry
     smearing contrib. (-TS)   =      -0.00014963 Ry

     convergence has been achieved in   7 iterations

     Forces acting on atoms (cartesian axes, Ry/au):

     atom    1 type  1   force =    -0.00000000   -0.00000000    0.00000000
     atom    2 type  2   force =     0.00019071   -0.00019071    0.00004264
     atom    3 type  2   force =    -0.00019071    0.00019071   -0.00004264

     Total force =     0.000386     Total SCF correction =     0.000002


     Computing stress (Cartesian axis) and pressure

          total   stress  (Ry/bohr**3)                   (kbar)     P=  -34.47
  -0.00028145  -0.00000517   0.00000256        -41.40     -0.76      0.38
  -0.00000517  -0.00028145  -0.00000256         -0.76    -41.40     -0.38
   0.00000256  -0.00000256  -0.00014017          0.38     -0.38    -20.62


     number of scf cycles    =   5
     number of bfgs steps    =   4

     energy   old            =    -175.4577253927 Ry
     energy   new            =    -175.4577432375 Ry

     CASE: energy  _new < energy  _old

     new trust radius        =       0.0002726396 bohr
     new conv_thr            =            1.0E-10 Ry


ATOMIC_POSITIONS (crystal)
Ti      -0.000000000  -0.000000000   0.000000000
Se       0.333722134   0.666277865   0.251057701
Se       0.666277865   0.333722134  -0.251057701



     Writing output data file TiSe2.save/
     NEW-OLD atomic charge density approx. for the potential

     total cpu time spent up to now is      477.2 secs

     Self-consistent Calculation

     iteration #  1     ecut=    70.00 Ry     beta= 0.70
     Davidson diagonalization with overlap
     ethr =  1.00E-06,  avg # of iterations =  2.0

     Threshold (ethr) on eigenvalues was too large:
     Diagonalizing with lowered threshold

     Davidson diagonalization with overlap
     ethr =  1.46E-11,  avg # of iterations =  4.0

     total cpu time spent up to now is      493.2 secs

     total energy              =    -175.45774338 Ry
     Harris-Foulkes estimate   =    -175.45774338 Ry
     estimated scf accuracy    <          3.5E-09 Ry

     iteration #  2     ecut=    70.00 Ry     beta= 0.70
     Davidson diagonalization with overlap
     ethr =  1.45E-11,  avg # of iterations =  2.0

     total cpu time spent up to now is      500.6 secs

     total energy              =    -175.45774338 Ry
     Harris-Foulkes estimate   =    -175.45774338 Ry
     estimated scf accuracy    <          5.5E-10 Ry

     iteration #  3     ecut=    70.00 Ry     beta= 0.70
     Davidson diagonalization with overlap
     ethr =  2.28E-12,  avg # of iterations =  3.7

     total cpu time spent up to now is      508.9 secs

     total energy              =    -175.45774338 Ry
     Harris-Foulkes estimate   =    -175.45774338 Ry
     estimated scf accuracy    <          6.5E-09 Ry

     iteration #  4     ecut=    70.00 Ry     beta= 0.70
     Davidson diagonalization with overlap
     ethr =  2.28E-12,  avg # of iterations =  3.2

     total cpu time spent up to now is      516.6 secs

     End of self-consistent calculation

     Number of k-points >= 100: set verbosity='high' to print the bands.

     the Fermi energy is     7.5497 ev

!    total energy              =    -175.45774338 Ry
     Harris-Foulkes estimate   =    -175.45774338 Ry
     estimated scf accuracy    <          3.5E-11 Ry

     The total energy is the sum of the following terms:

     one-electron contribution =     -80.47456231 Ry
     hartree contribution      =      48.05594846 Ry
     xc contribution           =     -45.43186343 Ry
     ewald contribution        =     -97.60711646 Ry
     smearing contrib. (-TS)   =      -0.00014964 Ry

     convergence has been achieved in   4 iterations

     Forces acting on atoms (cartesian axes, Ry/au):

     atom    1 type  1   force =     0.00000000    0.00000000    0.00000000
     atom    2 type  2   force =     0.00016908   -0.00016908    0.00003253
     atom    3 type  2   force =    -0.00016908    0.00016908   -0.00003253

     Total force =     0.000341     Total SCF correction =     0.000007


     Computing stress (Cartesian axis) and pressure

          total   stress  (Ry/bohr**3)                   (kbar)     P=  -34.48
  -0.00028144  -0.00000506   0.00000229        -41.40     -0.74      0.34
  -0.00000506  -0.00028144  -0.00000229         -0.74    -41.40     -0.34
   0.00000229  -0.00000229  -0.00014020          0.34     -0.34    -20.62


     number of scf cycles    =   6
     number of bfgs steps    =   5

     energy   old            =    -175.4577432375 Ry
     energy   new            =    -175.4577433774 Ry

     CASE: energy  _new < energy  _old


     WARNING: bfgs curvature condition failed, Theta= 0.905
     new trust radius        =       0.0002999035 bohr
     new conv_thr            =            1.4E-11 Ry


ATOMIC_POSITIONS (crystal)
Ti      -0.000000000  -0.000000000   0.000000000
Se       0.333747992   0.666252007   0.251059123
Se       0.666252007   0.333747992  -0.251059123



     Writing output data file TiSe2.save/
     NEW-OLD atomic charge density approx. for the potential

     total cpu time spent up to now is      542.0 secs

     Self-consistent Calculation

     iteration #  1     ecut=    70.00 Ry     beta= 0.70
     Davidson diagonalization with overlap
     ethr =  1.00E-06,  avg # of iterations =  2.0

     Threshold (ethr) on eigenvalues was too large:
     Diagonalizing with lowered threshold

     Davidson diagonalization with overlap
     ethr =  2.43E-11,  avg # of iterations =  3.7

     total cpu time spent up to now is      557.6 secs

     total energy              =    -175.45774357 Ry
     Harris-Foulkes estimate   =    -175.45774357 Ry
     estimated scf accuracy    <          6.5E-09 Ry

     iteration #  2     ecut=    70.00 Ry     beta= 0.70
     Davidson diagonalization with overlap
     ethr =  2.70E-11,  avg # of iterations =  3.3

     total cpu time spent up to now is      566.1 secs

     total energy              =    -175.45774356 Ry
     Harris-Foulkes estimate   =    -175.45774358 Ry
     estimated scf accuracy    <       0.00000007 Ry

     iteration #  3     ecut=    70.00 Ry     beta= 0.70
     Davidson diagonalization with overlap
     ethr =  2.70E-11,  avg # of iterations =  3.7

     total cpu time spent up to now is      574.2 secs

     total energy              =    -175.45774357 Ry
     Harris-Foulkes estimate   =    -175.45774357 Ry
     estimated scf accuracy    <          3.9E-09 Ry

     iteration #  4     ecut=    70.00 Ry     beta= 0.70
     Davidson diagonalization with overlap
     ethr =  1.62E-11,  avg # of iterations =  1.4

     total cpu time spent up to now is      580.6 secs

     total energy              =    -175.45774357 Ry
     Harris-Foulkes estimate   =    -175.45774357 Ry
     estimated scf accuracy    <          2.9E-11 Ry

     iteration #  5     ecut=    70.00 Ry     beta= 0.70
     Davidson diagonalization with overlap
     ethr =  1.22E-13,  avg # of iterations =  4.3

     total cpu time spent up to now is      589.4 secs

     total energy              =    -175.45774357 Ry
     Harris-Foulkes estimate   =    -175.45774357 Ry
     estimated scf accuracy    <          2.5E-11 Ry

     iteration #  6     ecut=    70.00 Ry     beta= 0.70
     Davidson diagonalization with overlap
     ethr =  1.04E-13,  avg # of iterations =  1.0

     total cpu time spent up to now is      595.4 secs

     End of self-consistent calculation

     Number of k-points >= 100: set verbosity='high' to print the bands.

     the Fermi energy is     7.5497 ev

!    total energy              =    -175.45774357 Ry
     Harris-Foulkes estimate   =    -175.45774357 Ry
     estimated scf accuracy    <          6.1E-12 Ry

     The total energy is the sum of the following terms:

     one-electron contribution =     -80.47397668 Ry
     hartree contribution      =      48.05564304 Ry
     xc contribution           =     -45.43185265 Ry
     ewald contribution        =     -97.60740763 Ry
     smearing contrib. (-TS)   =      -0.00014965 Ry

     convergence has been achieved in   6 iterations

     Forces acting on atoms (cartesian axes, Ry/au):

     atom    1 type  1   force =     0.00000000    0.00000000    0.00000000
     atom    2 type  2   force =     0.00014415   -0.00014415    0.00002873
     atom    3 type  2   force =    -0.00014415    0.00014415   -0.00002873

     Total force =     0.000291     Total SCF correction =     0.000004


     Computing stress (Cartesian axis) and pressure

          total   stress  (Ry/bohr**3)                   (kbar)     P=  -34.48
  -0.00028149  -0.00000493   0.00000199        -41.41     -0.73      0.29
  -0.00000493  -0.00028149  -0.00000199         -0.73    -41.41     -0.29
   0.00000199  -0.00000199  -0.00014029          0.29     -0.29    -20.64


     number of scf cycles    =   7
     number of bfgs steps    =   6

     energy   old            =    -175.4577433774 Ry
     energy   new            =    -175.4577435720 Ry

     CASE: energy  _new < energy  _old

     new trust radius        =       0.0004498553 bohr
     new conv_thr            =            1.9E-11 Ry


ATOMIC_POSITIONS (crystal)
Ti      -0.000000000  -0.000000000   0.000000000
Se       0.333786737   0.666213262   0.251061953
Se       0.666213262   0.333786737  -0.251061953



     Writing output data file TiSe2.save/
     NEW-OLD atomic charge density approx. for the potential

     total cpu time spent up to now is      620.8 secs

     Self-consistent Calculation

     iteration #  1     ecut=    70.00 Ry     beta= 0.70
     Davidson diagonalization with overlap
     ethr =  1.00E-06,  avg # of iterations =  2.0

     Threshold (ethr) on eigenvalues was too large:
     Diagonalizing with lowered threshold

     Davidson diagonalization with overlap
     ethr =  4.00E-11,  avg # of iterations =  3.9

     total cpu time spent up to now is      636.8 secs

     total energy              =    -175.45774355 Ry
     Harris-Foulkes estimate   =    -175.45774355 Ry
     estimated scf accuracy    <       0.00000001 Ry

     iteration #  2     ecut=    70.00 Ry     beta= 0.70
     Davidson diagonalization with overlap
     ethr =  4.46E-11,  avg # of iterations =  3.0

     total cpu time spent up to now is      644.7 secs

     total energy              =    -175.45774354 Ry
     Harris-Foulkes estimate   =    -175.45774355 Ry
     estimated scf accuracy    <       0.00000003 Ry

     iteration #  3     ecut=    70.00 Ry     beta= 0.70
     Davidson diagonalization with overlap
     ethr =  4.46E-11,  avg # of iterations =  3.3

     total cpu time spent up to now is      652.4 secs

     total energy              =    -175.45774355 Ry
     Harris-Foulkes estimate   =    -175.45774355 Ry
     estimated scf accuracy    <       0.00000003 Ry

     iteration #  4     ecut=    70.00 Ry     beta= 0.70
     Davidson diagonalization with overlap
     ethr =  4.46E-11,  avg # of iterations =  2.7

     total cpu time spent up to now is      659.2 secs

     total energy              =    -175.45774355 Ry
     Harris-Foulkes estimate   =    -175.45774355 Ry
     estimated scf accuracy    <          2.3E-11 Ry

     iteration #  5     ecut=    70.00 Ry     beta= 0.70
     Davidson diagonalization with overlap
     ethr =  1.00E-13,  avg # of iterations =  3.5

     total cpu time spent up to now is      669.6 secs

     End of self-consistent calculation

     Number of k-points >= 100: set verbosity='high' to print the bands.

     the Fermi energy is     7.5497 ev

!    total energy              =    -175.45774355 Ry
     Harris-Foulkes estimate   =    -175.45774355 Ry
     estimated scf accuracy    <          6.1E-12 Ry

     The total energy is the sum of the following terms:

     one-electron contribution =     -80.47286102 Ry
     hartree contribution      =      48.05508662 Ry
     xc contribution           =     -45.43183468 Ry
     ewald contribution        =     -97.60798482 Ry
     smearing contrib. (-TS)   =      -0.00014965 Ry

     convergence has been achieved in   5 iterations

     Forces acting on atoms (cartesian axes, Ry/au):

     atom    1 type  1   force =     0.00000000    0.00000000    0.00000000
     atom    2 type  2   force =     0.00010745   -0.00010745    0.00002137
     atom    3 type  2   force =    -0.00010745    0.00010745   -0.00002137

     Total force =     0.000217     Total SCF correction =     0.000002


     Computing stress (Cartesian axis) and pressure

          total   stress  (Ry/bohr**3)                   (kbar)     P=  -34.49
  -0.00028153  -0.00000475   0.00000153        -41.41     -0.70      0.23
  -0.00000475  -0.00028153  -0.00000153         -0.70    -41.41     -0.23
   0.00000153  -0.00000153  -0.00014039          0.23     -0.23    -20.65


     number of scf cycles    =   8
     number of bfgs steps    =   7

     energy   old            =    -175.4577435720 Ry
     energy   new            =    -175.4577435506 Ry

     CASE: energy  _new > energy  _old

     new trust radius        =       0.0002016444 bohr
     new conv_thr            =            1.9E-11 Ry


ATOMIC_POSITIONS (crystal)
Ti      -0.000000000  -0.000000000   0.000000000
Se       0.333765359   0.666234640   0.251060391
Se       0.666234640   0.333765359  -0.251060391



     Writing output data file TiSe2.save/
     NEW-OLD atomic charge density approx. for the potential

     total cpu time spent up to now is      694.9 secs

     Self-consistent Calculation

     iteration #  1     ecut=    70.00 Ry     beta= 0.70
     Davidson diagonalization with overlap
     ethr =  1.00E-06,  avg # of iterations =  1.9

     Threshold (ethr) on eigenvalues was too large:
     Diagonalizing with lowered threshold

     Davidson diagonalization with overlap
     ethr =  1.26E-11,  avg # of iterations =  4.0

     total cpu time spent up to now is      711.1 secs

     total energy              =    -175.45774359 Ry
     Harris-Foulkes estimate   =    -175.45774359 Ry
     estimated scf accuracy    <          3.0E-09 Ry

     iteration #  2     ecut=    70.00 Ry     beta= 0.70
     Davidson diagonalization with overlap
     ethr =  1.26E-11,  avg # of iterations =  2.5

     total cpu time spent up to now is      718.8 secs

     total energy              =    -175.45774359 Ry
     Harris-Foulkes estimate   =    -175.45774359 Ry
     estimated scf accuracy    <          3.4E-09 Ry

     iteration #  3     ecut=    70.00 Ry     beta= 0.70
     Davidson diagonalization with overlap
     ethr =  1.26E-11,  avg # of iterations =  3.1

     total cpu time spent up to now is      726.4 secs

     total energy              =    -175.45774359 Ry
     Harris-Foulkes estimate   =    -175.45774359 Ry
     estimated scf accuracy    <       0.00000001 Ry

     iteration #  4     ecut=    70.00 Ry     beta= 0.70
     Davidson diagonalization with overlap
     ethr =  1.26E-11,  avg # of iterations =  3.0

     total cpu time spent up to now is      733.7 secs

     End of self-consistent calculation

     Number of k-points >= 100: set verbosity='high' to print the bands.

     the Fermi energy is     7.5497 ev

!    total energy              =    -175.45774359 Ry
     Harris-Foulkes estimate   =    -175.45774359 Ry
     estimated scf accuracy    <          9.9E-12 Ry

     The total energy is the sum of the following terms:

     one-electron contribution =     -80.47346618 Ry
     hartree contribution      =      48.05538211 Ry
     xc contribution           =     -45.43184344 Ry
     ewald contribution        =     -97.60766643 Ry
     smearing contrib. (-TS)   =      -0.00014965 Ry

     convergence has been achieved in   4 iterations

     Forces acting on atoms (cartesian axes, Ry/au):

     atom    1 type  1   force =     0.00000000    0.00000000    0.00000000
     atom    2 type  2   force =     0.00012732   -0.00012732    0.00002472
     atom    3 type  2   force =    -0.00012732    0.00012732   -0.00002472

     Total force =     0.000257     Total SCF correction =     0.000006


     Computing stress (Cartesian axis) and pressure

          total   stress  (Ry/bohr**3)                   (kbar)     P=  -34.49
  -0.00028153  -0.00000485   0.00000178        -41.41     -0.71      0.26
  -0.00000485  -0.00028153  -0.00000178         -0.71    -41.41     -0.26
   0.00000178  -0.00000178  -0.00014035          0.26     -0.26    -20.65


     number of scf cycles    =   9
     number of bfgs steps    =   7

     energy   old            =    -175.4577435720 Ry
     energy   new            =    -175.4577435892 Ry

     CASE: energy  _new < energy  _old

     new trust radius        =       0.0003024666 bohr
     new conv_thr            =            1.7E-12 Ry


ATOMIC_POSITIONS (crystal)
Ti      -0.000000000  -0.000000000   0.000000000
Se       0.333791436   0.666208563   0.251061854
Se       0.666208563   0.333791436  -0.251061854



     Writing output data file TiSe2.save/
     NEW-OLD atomic charge density approx. for the potential

     total cpu time spent up to now is      759.0 secs

     Self-consistent Calculation

     iteration #  1     ecut=    70.00 Ry     beta= 0.70
     Davidson diagonalization with overlap
     ethr =  1.00E-06,  avg # of iterations =  2.0

     Threshold (ethr) on eigenvalues was too large:
     Diagonalizing with lowered threshold

     Davidson diagonalization with overlap
     ethr =  1.85E-11,  avg # of iterations =  3.9

     total cpu time spent up to now is      775.1 secs

     total energy              =    -175.45774357 Ry
     Harris-Foulkes estimate   =    -175.45774357 Ry
     estimated scf accuracy    <          4.7E-09 Ry

     iteration #  2     ecut=    70.00 Ry     beta= 0.70
     Davidson diagonalization with overlap
     ethr =  1.98E-11,  avg # of iterations =  2.8

     total cpu time spent up to now is      782.9 secs

     total energy              =    -175.45774356 Ry
     Harris-Foulkes estimate   =    -175.45774357 Ry
     estimated scf accuracy    <          8.2E-09 Ry

     iteration #  3     ecut=    70.00 Ry     beta= 0.70
     Davidson diagonalization with overlap
     ethr =  1.98E-11,  avg # of iterations =  3.1

     total cpu time spent up to now is      790.6 secs

     total energy              =    -175.45774357 Ry
     Harris-Foulkes estimate   =    -175.45774357 Ry
     estimated scf accuracy    <       0.00000002 Ry

     iteration #  4     ecut=    70.00 Ry     beta= 0.70
     Davidson diagonalization with overlap
     ethr =  1.98E-11,  avg # of iterations =  2.9

     total cpu time spent up to now is      797.7 secs

     total energy              =    -175.45774357 Ry
     Harris-Foulkes estimate   =    -175.45774357 Ry
     estimated scf accuracy    <          1.3E-11 Ry

     iteration #  5     ecut=    70.00 Ry     beta= 0.70
     Davidson diagonalization with overlap
     ethr =  1.00E-13,  avg # of iterations =  2.5

     total cpu time spent up to now is      805.9 secs

     End of self-consistent calculation

     Number of k-points >= 100: set verbosity='high' to print the bands.

     the Fermi energy is     7.5497 ev

!    total energy              =    -175.45774357 Ry
     Harris-Foulkes estimate   =    -175.45774357 Ry
     estimated scf accuracy    <          1.5E-12 Ry

     The total energy is the sum of the following terms:

     one-electron contribution =     -80.47288548 Ry
     hartree contribution      =      48.05509118 Ry
     xc contribution           =     -45.43183402 Ry
     ewald contribution        =     -97.60796560 Ry
     smearing contrib. (-TS)   =      -0.00014965 Ry

     convergence has been achieved in   5 iterations

     Forces acting on atoms (cartesian axes, Ry/au):

     atom    1 type  1   force =     0.00000000    0.00000000    0.00000000
     atom    2 type  2   force =     0.00010316   -0.00010316    0.00002112
     atom    3 type  2   force =    -0.00010316    0.00010316   -0.00002112

     Total force =     0.000208     Total SCF correction =     0.000003


     Computing stress (Cartesian axis) and pressure

          total   stress  (Ry/bohr**3)                   (kbar)     P=  -34.50
  -0.00028155  -0.00000472   0.00000148        -41.42     -0.69      0.22
  -0.00000472  -0.00028155  -0.00000148         -0.69    -41.42     -0.22
   0.00000148  -0.00000148  -0.00014041          0.22     -0.22    -20.65


     number of scf cycles    =  10
     number of bfgs steps    =   8

     energy   old            =    -175.4577435892 Ry
     energy   new            =    -175.4577435669 Ry

     CASE: energy  _new > energy  _old

     new trust radius        =       0.0001256109 bohr
     new conv_thr            =            1.7E-12 Ry


ATOMIC_POSITIONS (crystal)
Ti      -0.000000000  -0.000000000   0.000000000
Se       0.333776188   0.666223811   0.251060999
Se       0.666223811   0.333776188  -0.251060999



     Writing output data file TiSe2.save/
     NEW-OLD atomic charge density approx. for the potential

     total cpu time spent up to now is      831.2 secs

     Self-consistent Calculation

     iteration #  1     ecut=    70.00 Ry     beta= 0.70
     Davidson diagonalization with overlap
     ethr =  1.00E-06,  avg # of iterations =  1.8

     Threshold (ethr) on eigenvalues was too large:
     Diagonalizing with lowered threshold

     Davidson diagonalization with overlap
     ethr =  6.95E-12,  avg # of iterations =  4.0

     total cpu time spent up to now is      847.4 secs

     total energy              =    -175.45774351 Ry
     Harris-Foulkes estimate   =    -175.45774351 Ry
     estimated scf accuracy    <          1.5E-09 Ry

     iteration #  2     ecut=    70.00 Ry     beta= 0.70
     Davidson diagonalization with overlap
     ethr =  6.24E-12,  avg # of iterations =  2.0

     total cpu time spent up to now is      854.9 secs

     total energy              =    -175.45774351 Ry
     Harris-Foulkes estimate   =    -175.45774351 Ry
     estimated scf accuracy    <          2.6E-10 Ry

     iteration #  3     ecut=    70.00 Ry     beta= 0.70
     Davidson diagonalization with overlap
     ethr =  1.06E-12,  avg # of iterations =  3.6

     total cpu time spent up to now is      863.2 secs

     total energy              =    -175.45774351 Ry
     Harris-Foulkes estimate   =    -175.45774351 Ry
     estimated scf accuracy    <          3.0E-09 Ry

     iteration #  4     ecut=    70.00 Ry     beta= 0.70
     Davidson diagonalization with overlap
     ethr =  1.06E-12,  avg # of iterations =  3.2

     total cpu time spent up to now is      871.0 secs

     total energy              =    -175.45774351 Ry
     Harris-Foulkes estimate   =    -175.45774351 Ry
     estimated scf accuracy    <          1.6E-11 Ry

     iteration #  5     ecut=    70.00 Ry     beta= 0.70
     Davidson diagonalization with overlap
     ethr =  1.00E-13,  avg # of iterations =  1.4

     total cpu time spent up to now is      877.3 secs

     End of self-consistent calculation

     Number of k-points >= 100: set verbosity='high' to print the bands.

     the Fermi energy is     7.5497 ev

!    total energy              =    -175.45774351 Ry
     Harris-Foulkes estimate   =    -175.45774351 Ry
     estimated scf accuracy    <          3.2E-13 Ry

     The total energy is the sum of the following terms:

     one-electron contribution =     -80.47321963 Ry
     hartree contribution      =      48.05525594 Ry
     xc contribution           =     -45.43183948 Ry
     ewald contribution        =     -97.60779070 Ry
     smearing contrib. (-TS)   =      -0.00014965 Ry

     convergence has been achieved in   5 iterations

     Forces acting on atoms (cartesian axes, Ry/au):

     atom    1 type  1   force =     0.00000000    0.00000000    0.00000000
     atom    2 type  2   force =     0.00011749   -0.00011749    0.00002388
     atom    3 type  2   force =    -0.00011749    0.00011749   -0.00002388

     Total force =     0.000237     Total SCF correction =     0.000001


     Computing stress (Cartesian axis) and pressure

          total   stress  (Ry/bohr**3)                   (kbar)     P=  -34.49
  -0.00028153  -0.00000480   0.00000166        -41.42     -0.71      0.24
  -0.00000480  -0.00028153  -0.00000166         -0.71    -41.42     -0.24
   0.00000166  -0.00000166  -0.00014038          0.24     -0.24    -20.65


     number of scf cycles    =  11
     number of bfgs steps    =   8

     energy   old            =    -175.4577435892 Ry
     energy   new            =    -175.4577435113 Ry

     CASE: energy  _new > energy  _old

     new trust radius        =       0.0000231613 bohr

     trust_radius < trust_radius_min

     resetting bfgs history

     new conv_thr            =            1.7E-12 Ry


ATOMIC_POSITIONS (crystal)
Ti      -0.000000000  -0.000000000   0.000000000
Se       0.333780927   0.666219072   0.251062428
Se       0.666219072   0.333780927  -0.251062428



     Writing output data file TiSe2.save/
     NEW-OLD atomic charge density approx. for the potential

     total cpu time spent up to now is      902.6 secs

     Self-consistent Calculation

     iteration #  1     ecut=    70.00 Ry     beta= 0.70
     Davidson diagonalization with overlap
     ethr =  1.00E-06,  avg # of iterations =  1.0

     Threshold (ethr) on eigenvalues was too large:
     Diagonalizing with lowered threshold

     Davidson diagonalization with overlap
     ethr =  1.12E-12,  avg # of iterations =  3.9

     total cpu time spent up to now is      917.8 secs

     total energy              =    -175.45774353 Ry
     Harris-Foulkes estimate   =    -175.45774353 Ry
     estimated scf accuracy    <          2.6E-10 Ry

     iteration #  2     ecut=    70.00 Ry     beta= 0.70
     Davidson diagonalization with overlap
     ethr =  1.09E-12,  avg # of iterations =  3.4

     total cpu time spent up to now is      926.3 secs

     total energy              =    -175.45774353 Ry
     Harris-Foulkes estimate   =    -175.45774353 Ry
     estimated scf accuracy    <          3.3E-09 Ry

     iteration #  3     ecut=    70.00 Ry     beta= 0.70
     Davidson diagonalization with overlap
     ethr =  1.09E-12,  avg # of iterations =  3.7

     total cpu time spent up to now is      934.5 secs

     total energy              =    -175.45774353 Ry
     Harris-Foulkes estimate   =    -175.45774353 Ry
     estimated scf accuracy    <          1.1E-10 Ry

     iteration #  4     ecut=    70.00 Ry     beta= 0.70
     Davidson diagonalization with overlap
     ethr =  4.68E-13,  avg # of iterations =  1.5

     total cpu time spent up to now is      940.8 secs

     End of self-consistent calculation

     Number of k-points >= 100: set verbosity='high' to print the bands.

     the Fermi energy is     7.5497 ev

!    total energy              =    -175.45774353 Ry
     Harris-Foulkes estimate   =    -175.45774353 Ry
     estimated scf accuracy    <          1.1E-12 Ry

     The total energy is the sum of the following terms:

     one-electron contribution =     -80.47264946 Ry
     hartree contribution      =      48.05496547 Ry
     xc contribution           =     -45.43183013 Ry
     ewald contribution        =     -97.60807975 Ry
     smearing contrib. (-TS)   =      -0.00014965 Ry

     convergence has been achieved in   4 iterations

     Forces acting on atoms (cartesian axes, Ry/au):

     atom    1 type  1   force =     0.00000000    0.00000000    0.00000000
     atom    2 type  2   force =     0.00011325   -0.00011325    0.00002095
     atom    3 type  2   force =    -0.00011325    0.00011325   -0.00002095

     Total force =     0.000228     Total SCF correction =     0.000002


     Computing stress (Cartesian axis) and pressure

          total   stress  (Ry/bohr**3)                   (kbar)     P=  -34.50
  -0.00028156  -0.00000478   0.00000160        -41.42     -0.70      0.24
  -0.00000478  -0.00028156  -0.00000160         -0.70    -41.42     -0.24
   0.00000160  -0.00000160  -0.00014043          0.24     -0.24    -20.66


     number of scf cycles    =  12
     number of bfgs steps    =   8

     energy   old            =    -175.4577435892 Ry
     energy   new            =    -175.4577435298 Ry

     CASE: energy  _new > energy  _old

     new trust radius        =       0.0000478374 bohr

     trust_radius < trust_radius_min

     resetting bfgs history

     Message from routine bfgs:
     history already reset at previous step: stopping
     new conv_thr            =            1.7E-12 Ry


ATOMIC_POSITIONS (crystal)
Ti      -0.000000000  -0.000000000   0.000000000
Se       0.333780927   0.666219072   0.251062428
Se       0.666219072   0.333780927  -0.251062428



     Writing output data file TiSe2.save/
     NEW-OLD atomic charge density approx. for the potential

     total cpu time spent up to now is      966.1 secs

     Self-consistent Calculation

     iteration #  1     ecut=    70.00 Ry     beta= 0.70
     Davidson diagonalization with overlap
     ethr =  1.00E-06,  avg # of iterations =  1.0

     Threshold (ethr) on eigenvalues was too large:
     Diagonalizing with lowered threshold

     Davidson diagonalization with overlap
     ethr =  1.16E-13,  avg # of iterations =  2.1

     total cpu time spent up to now is      978.7 secs

     total energy              =    -175.45774353 Ry
     Harris-Foulkes estimate   =    -175.45774353 Ry
     estimated scf accuracy    <          3.8E-11 Ry

     iteration #  2     ecut=    70.00 Ry     beta= 0.70
     Davidson diagonalization with overlap
     ethr =  1.58E-13,  avg # of iterations =  4.0

     total cpu time spent up to now is      987.6 secs

     total energy              =    -175.45774353 Ry
     Harris-Foulkes estimate   =    -175.45774353 Ry
     estimated scf accuracy    <          1.1E-09 Ry

     iteration #  3     ecut=    70.00 Ry     beta= 0.70
     Davidson diagonalization with overlap
     ethr =  1.58E-13,  avg # of iterations =  4.0

     total cpu time spent up to now is      996.3 secs

     End of self-consistent calculation

     Number of k-points >= 100: set verbosity='high' to print the bands.

     the Fermi energy is     7.5497 ev

!    total energy              =    -175.45774353 Ry
     Harris-Foulkes estimate   =    -175.45774353 Ry
     estimated scf accuracy    <          4.1E-13 Ry

     The total energy is the sum of the following terms:

     one-electron contribution =     -80.47266167 Ry
     hartree contribution      =      48.05497852 Ry
     xc contribution           =     -45.43183098 Ry
     ewald contribution        =     -97.60807975 Ry
     smearing contrib. (-TS)   =      -0.00014965 Ry

     convergence has been achieved in   3 iterations

     Forces acting on atoms (cartesian axes, Ry/au):

     atom    1 type  1   force =     0.00000000    0.00000000    0.00000000
     atom    2 type  2   force =     0.00011310   -0.00011310    0.00002058
     atom    3 type  2   force =    -0.00011310    0.00011310   -0.00002058

     Total force =     0.000228     Total SCF correction =     0.000000


     Computing stress (Cartesian axis) and pressure

          total   stress  (Ry/bohr**3)                   (kbar)     P=  -34.50
  -0.00028155  -0.00000477   0.00000160        -41.42     -0.70      0.24
  -0.00000477  -0.00028155  -0.00000160         -0.70    -41.42     -0.24
   0.00000160  -0.00000160  -0.00014042          0.24     -0.24    -20.66

     Message from routine bfgs:
     history already reset at previous step: stopping

     bfgs converged in  13 scf cycles and   8 bfgs steps
     (criteria: energy <  1.0E-08 Ry, force <  1.0E-08 Ry/Bohr)

     End of BFGS Geometry Optimization

     Final energy   =    -175.4577435298 Ry
Begin final coordinates

ATOMIC_POSITIONS (crystal)
Ti      -0.000000000  -0.000000000   0.000000000
Se       0.333780927   0.666219072   0.251062428
Se       0.666219072   0.333780927  -0.251062428
End final coordinates



     Writing output data file TiSe2.save/

     init_run     :     10.55s CPU     11.06s WALL (       1 calls)
     electrons    :    573.87s CPU    680.33s WALL (      13 calls)
     update_pot   :     76.32s CPU     76.35s WALL (      12 calls)
     forces       :     68.74s CPU     69.38s WALL (      13 calls)
     stress       :    165.99s CPU    170.68s WALL (      13 calls)

     Called by init_run:
     wfcinit      :      2.33s CPU      2.35s WALL (       1 calls)
     potinit      :      2.26s CPU      2.59s WALL (       1 calls)
     hinit0       :      5.78s CPU      5.79s WALL (       1 calls)

     Called by electrons:
     c_bands      :    476.28s CPU    558.62s WALL (      87 calls)
     sum_band     :     82.31s CPU     97.04s WALL (      87 calls)
     v_of_rho     :      5.72s CPU      5.72s WALL (      88 calls)
     newd         :      3.73s CPU      6.12s WALL (      88 calls)
     mix_rho      :      3.19s CPU      3.19s WALL (      87 calls)

     Called by c_bands:
     init_us_2    :     14.03s CPU     14.11s WALL (    7035 calls)
     cegterg      :    442.82s CPU    443.35s WALL (    3045 calls)

     Called by sum_band:
     sum_band:bec :      0.08s CPU      0.07s WALL (    3045 calls)
     addusdens    :      2.70s CPU      5.91s WALL (      87 calls)

     Called by *egterg:
     h_psi        :    327.90s CPU    328.40s WALL (   11780 calls)
     s_psi        :     26.46s CPU     26.43s WALL (   11780 calls)
     g_psi        :      2.36s CPU      2.43s WALL (    8700 calls)
     cdiaghg      :      5.57s CPU      5.56s WALL (   10905 calls)

     Called by h_psi:
     h_psi:pot    :    326.00s CPU    326.40s WALL (   11780 calls)
     h_psi:calbec :     32.25s CPU     32.23s WALL (   11780 calls)
     vloc_psi     :    266.95s CPU    267.25s WALL (   11780 calls)
     add_vuspsi   :     26.76s CPU     26.88s WALL (   11780 calls)

     General routines
     calbec       :     53.92s CPU     53.90s WALL (   17100 calls)
     fft          :     10.33s CPU     10.33s WALL (     630 calls)
     ffts         :      0.28s CPU      0.28s WALL (     175 calls)
     fftw         :    289.47s CPU    289.57s WALL (  291196 calls)
     interpolate  :      1.87s CPU      1.87s WALL (      88 calls)

     Parallel routines

     PWSCF        :  14m59.95s CPU  17m 6.68s WALL


   This run was terminated on:  15: 1:53   1Jul2019            

=------------------------------------------------------------------------------=
   JOB DONE.
=------------------------------------------------------------------------------=
